      97
 i =        1, E =      -630.1301308816
  B         7.4774270153       14.4855594849        1.6666858207
  B        14.9867676422        1.4743949999        1.6666257983
  B        13.7378491351        3.6414822535        1.6666717800
  B        12.4869195568        5.8059588632        1.6667110525
  B        11.2411013177        7.9771392876        1.6665727003
  B         9.9802333062       10.1450447346        1.6665941839
  B         8.7261105438       12.3125068584        1.6666287613
  B        -7.5459117896       14.4844570446        1.6666356758
  B        -0.0352503518        1.4726993491        1.6665922644
  B        -1.2863359981        3.6432629594        1.6664465998
  B        -2.5349108530        5.8093743523        1.6664757920
  B        -3.7898073461        7.9779250449        1.6664581362
  B        -5.0398515707       10.1441474515        1.6665366796
  B        -6.2934680923       12.3140460275        1.6665166775
  B        -5.0399553347       14.4851357967        1.6667389353
  B         2.4710404549        1.4778154994        1.6667193901
  B         1.2171488228        3.6444866530        1.6666765546
  B        -0.0255345040        5.8106054602        1.6665213862
  B        -1.2903675846        7.9785695114        1.6665217210
  B        -2.5315821730       10.1444489832        1.6667142466
  B        -3.7870241210       12.3142996972        1.6666485743
  B        -2.5344275992       14.4840547776        1.6668313598
  B         4.9749417014        1.4748113503        1.6668248951
  B         3.7205897716        3.6595875475        1.6666187552
  B         2.4755604404        5.8583406203        1.6664479579
  B         1.2189431818        7.9784566196        1.6663470690
  B        -0.0238205781       10.1413555222        1.6666020059
  B        -1.2808805482       12.3117863969        1.6667126754
  B        -0.0333327568       14.4845991914        1.6666798677
  B         7.4830358979        1.4672027737        1.6667768699
  B         6.2323107669        3.6193696469        1.6666495266
  B         4.9938138776        5.7988079048        1.6663218097
  B         2.4700451502       10.1466658157        1.6664913175
  B         1.2156967884       12.3199805199        1.6666713959
  B         2.4723094228       14.4821477468        1.6667121084
  B         9.9863826870        1.4739414068        1.6668530165
  B         8.7333717095        3.6423091763        1.6668376751
  B         7.4767912106        5.8108824729        1.6666826719
  B         6.2446915168        7.9663904530        1.6662454204
  B         4.9336395197       10.1178391817        1.6663846225
  B         3.7259506904       12.3088616179        1.6666683839
  B         4.9722318028       14.4836030116        1.6665432434
  B        12.4857240278        1.4724611698        1.6666995612
  B        11.2366764573        3.6397876091        1.6668783732
  B         9.9826198346        5.8069604057        1.6666448303
  B         8.7516548396        7.9839753741        1.6664734713
  B         7.4603316230       10.1387234010        1.6665865278
  B         6.2226653476       12.3150620915        1.6667280682
  N         8.7314410657       13.7613663850        1.6670294029
  N        16.2387822224        0.7520063130        1.6667944425
  N        14.9867577724        2.9182694408        1.6670192212
  N        13.7373905913        5.0848373276        1.6670889228
  N        12.4882251482        7.2505906143        1.6671031714
  N        11.2351562685        9.4233350980        1.6667396543
  N         9.9835006217       11.5922846246        1.6669781848
  N        -6.2919595160       13.7609099281        1.6669494770
  N         1.2192319286        0.7492621167        1.6669932586
  N        -0.0381984798        2.9134547922        1.6670766876
  N        -1.2889621632        5.0840382200        1.6668017574
  N        -2.5470348051        7.2534034643        1.6668632635
  N        -3.7892030482        9.4244220767        1.6670578075
  N        -5.0409103856       11.5915367364        1.6669765971
  N        -3.7883823616       13.7616138617        1.6671608841
  N         3.7231306529        0.7492858460        1.6670134510
  N         2.4730187940        2.9164425319        1.6672324645
  N         1.2188851764        5.0765826191        1.6671927343
  N        -0.0617738986        7.2504638111        1.6668961144
  N        -1.2887645454        9.4266004387        1.6670737909
  N        -2.5385810884       11.5929448027        1.6673372837
  N        -1.2860089870       13.7610514783        1.6672929419
  N         6.2273520962        0.7494755836        1.6671421090
  N         4.9686686333        2.9146285680        1.6671717570
  N         3.7282874610        5.0941701665        1.6671567521
  N         2.3934123465        7.2467309866        1.6670076962
  N         1.2063921394        9.4304649421        1.6671739088
  N        -0.0378335085       11.5942945594        1.6672825453
  N         1.2157526517       13.7712225556        1.6669355009
  N         8.7360530953        0.7509021684        1.6672543144
  N         7.4911270830        2.9067349736        1.6673302249
  N         6.2488285261        5.0493939082        1.6668811242
  N         5.0510290701        7.2105693321        1.6666343036
  N         3.6903128680        9.4938276629        1.6669451834
  N         2.4609803336       11.6203195298        1.6669947394
  N         3.7232554643       13.7663348457        1.6669700577
  N        11.2358023867        0.7516929647        1.6670796901
  N         9.9861255031        2.9188989793        1.6674411412
  N         8.7330251514        5.0853761042        1.6672197779
  N         7.5214200869        7.2550999984        1.6669242444
  N         6.2215168130        9.4143919901        1.6672036770
  N         4.9832522038       11.5974235625        1.6673243304
  N         6.2280394536       13.7678125300        1.6671403904
  N        13.7361218716        0.7525852300        1.6670790198
  N        12.4869276416        2.9173769215        1.6672782709
  N        11.2352008126        5.0833696357        1.6674639479
  N         9.9981554408        7.2505838651        1.6671256779
  N         8.7296609865        9.4302839797        1.6669923153
  N         7.4807993298       11.5908852851        1.6672822983
      97
 i =        2, E =      -630.1848987342
  B         7.4726282079       14.4820813400        1.6671804880
  B        14.9900761658        1.4722793664        1.6671972374
  B        13.7369014662        3.6391938357        1.6673069024
  B        12.4896280142        5.8103183740        1.6674744810
  B        11.2447704272        7.9784342125        1.6672429912
  B         9.9811757209       10.1470619946        1.6671156572
  B         8.7246302580       12.3118870279        1.6672582681
  B        -7.5469414609       14.4850060623        1.6671709472
  B        -0.0348389395        1.4779066929        1.6671425947
  B        -1.2883992230        3.6406376709        1.6671900009
  B        -2.5390116995        5.8068722144        1.6671676974
  B        -3.7861120838        7.9761412871        1.6672142528
  B        -5.0399246248       10.1459101086        1.6671549367
  B        -6.2927128657       12.3145481409        1.6671746557
  B        -5.0400569310       14.4840580194        1.6671588225
  B         2.4709963436        1.4787351273        1.6672097131
  B         1.2185568824        3.6586447107        1.6673974605
  B        -0.0339383999        5.8153280444        1.6672361855
  B        -1.2910657300        7.9742967722        1.6671742364
  B        -2.5366152423       10.1442161440        1.6673612175
  B        -3.7849091909       12.3131286943        1.6673809778
  B        -2.5360162749       14.4831233715        1.6673992767
  B         4.9735630891        1.4726828323        1.6672366839
  B         3.7242736537        3.6502727387        1.6674337810
  B         2.4795335610        5.8774155928        1.6672618958
  B         1.2129802517        7.9896475830        1.6672516566
  B        -0.0427803355       10.1516939885        1.6674244058
  B        -1.2828747690       12.3161232964        1.6675345496
  B        -0.0298577014       14.4825343060        1.6673870865
  B         7.4837976101        1.4632642639        1.6674953412
  B         6.2420633678        3.6196477196        1.6673443031
  B         5.0114938739        5.7792288638        1.6671907083
  B         2.4581542040       10.1466418631        1.6672766394
  B         1.2185886445       12.3230789100        1.6672729161
  B         2.4725510142       14.4871668321        1.6671731177
  B         9.9842326211        1.4692565526        1.6674188552
  B         8.7370188927        3.6314955777        1.6675601191
  B         7.4995580288        5.7976879440        1.6672191611
  B         6.2700662867        7.9617618110        1.6672085092
  B         4.9194362239       10.1048948893        1.6673498982
  B         3.7173380053       12.3141853613        1.6673287068
  B         4.9733019916       14.4865690501        1.6672687407
  B        12.4873458526        1.4741825036        1.6672899569
  B        11.2364824352        3.6396315652        1.6675783216
  B         9.9939541705        5.8095318231        1.6675495991
  B         8.7557122510        7.9747966730        1.6672617972
  B         7.4712543837       10.1401347017        1.6674800365
  B         6.2103620606       12.3062832395        1.6675029670
  N         8.7297751303       13.7612150504        1.6663600715
  N        16.2424977899        0.7493802446        1.6663461428
  N        14.9845598838        2.9150910267        1.6661545431
  N        13.7334089567        5.0814068978        1.6662339290
  N        12.4897879747        7.2545705586        1.6662047736
  N        11.2345468161        9.4239971870        1.6662781319
  N         9.9832683595       11.5928001870        1.6662139322
  N        -6.2926660069       13.7613937800        1.6663866542
  N         1.2186976274        0.7505965392        1.6663478104
  N        -0.0341585275        2.9192675756        1.6662712755
  N        -1.2947109760        5.0798579996        1.6661922760
  N        -2.5476258273        7.2502056363        1.6661907526
  N        -3.7933657207        9.4220306889        1.6662394922
  N        -5.0405198321       11.5927321278        1.6662671732
  N        -3.7893283841       13.7608578829        1.6664009439
  N         3.7226573490        0.7487136375        1.6662497416
  N         2.4707313401        2.9181953882        1.6660830043
  N         1.2183394549        5.0903309151        1.6661227200
  N        -0.0631655272        7.2540470910        1.6661451029
  N        -1.3004118058        9.4220623543        1.6660210214
  N        -2.5379425395       11.5926984281        1.6662657345
  N        -1.2860904211       13.7659124528        1.6663808922
  N         6.2262810874        0.7493125399        1.6663940168
  N         4.9804934709        2.9144450003        1.6660297820
  N         3.7402325657        5.0907493925        1.6661299066
  N         2.3785160531        7.2607252698        1.6664433623
  N         1.1812917725        9.4452448687        1.6658636445
  N        -0.0398737733       11.6056956324        1.6661252208
  N         1.2184404691       13.7737737190        1.6663812388
  N         8.7336706114        0.7476808616        1.6664004842
  N         7.4919547644        2.9011017054        1.6664246477
  N         6.2619126562        5.0479860637        1.6661948438
  N         5.0573248643        7.2068890350        1.6662036154
  N         3.6713258373        9.4996155646        1.6664248218
  N         2.4569351727       11.6205111238        1.6662480046
  N         3.7239432633       13.7737755492        1.6662861361
  N        11.2370433522        0.7567469937        1.6662412105
  N         9.9895376984        2.9136663017        1.6662793066
  N         8.7511992937        5.0751826684        1.6663548653
  N         7.5283685252        7.2444363743        1.6660878940
  N         6.2313793576        9.4066316847        1.6659959269
  N         4.9701691890       11.5909269315        1.6661973699
  N         6.2244010718       13.7609742371        1.6663088648
  N        13.7376015576        0.7555931785        1.6660944797
  N        12.4849178622        2.9182104961        1.6660063674
  N        11.2411676465        5.0827195947        1.6663067561
  N        10.0031674522        7.2529693173        1.6662172546
  N         8.7357953500        9.4189679800        1.6660304029
  N         7.4773377817       11.5915834299        1.6660672075
      97
 i =        3, E =      -630.1891891026
  B         7.4732029726       14.4820966369        1.6665754756
  B        14.9896792395        1.4724252756        1.6664752512
  B        13.7383682743        3.6387852234        1.6664657306
  B        12.4906601623        5.8093302107        1.6665960107
  B        11.2411662564        7.9773333637        1.6665197601
  B         9.9815042724       10.1456930391        1.6664320302
  B         8.7250377615       12.3123070526        1.6665184996
  B        -7.5477436926       14.4853507392        1.6665963925
  B        -0.0344521921        1.4775167326        1.6665576585
  B        -1.2867183182        3.6413356002        1.6664937240
  B        -2.5380878618        5.8070422231        1.6664735453
  B        -3.7871252224        7.9756500130        1.6665029130
  B        -5.0407950860       10.1464972371        1.6665145808
  B        -6.2946839245       12.3151021645        1.6665503707
  B        -5.0415654851       14.4853765872        1.6665861141
  B         2.4706862095        1.4783302263        1.6665064107
  B         1.2198616616        3.6573241395        1.6665163420
  B        -0.0351864218        5.8177169425        1.6664564401
  B        -1.2891561591        7.9755487710        1.6664126353
  B        -2.5382088503       10.1448175589        1.6665167201
  B        -3.7871653589       12.3143108826        1.6666294587
  B        -2.5369686456       14.4836594394        1.6666849380
  B         4.9748199628        1.4732373998        1.6665103208
  B         3.7253989460        3.6451737232        1.6664630523
  B         2.4801470088        5.8615865452        1.6666082811
  B         1.2213350058        7.9893287989        1.6665313758
  B        -0.0413532141       10.1515197063        1.6664135401
  B        -1.2845781830       12.3173290213        1.6666373510
  B        -0.0298707758       14.4836980248        1.6666760686
  B         7.4829546714        1.4670557998        1.6667241143
  B         6.2396286615        3.6300855669        1.6665454057
  B         4.9949594559        5.7844974752        1.6665711431
  B         2.4627218588       10.1394456045        1.6665565682
  B         1.2189535980       12.3207338239        1.6665436703
  B         2.4728045669       14.4860123457        1.6665432419
  B         9.9855195615        1.4689116418        1.6666269978
  B         8.7380778563        3.6315397963        1.6667151267
  B         7.4986729087        5.7982464287        1.6664922923
  B         6.2576946433        7.9735071120        1.6665296275
  B         4.9335127226       10.1124513224        1.6666219207
  B         3.7149880389       12.3135822287        1.6665593966
  B         4.9732360283       14.4846547313        1.6665331748
  B        12.4881753554        1.4730768485        1.6664457704
  B        11.2380111830        3.6388418601        1.6666050713
  B         9.9940172050        5.8081993267        1.6666632776
  B         8.7459429936        7.9721773941        1.6664430926
  B         7.4759699154       10.1418937366        1.6664387518
  B         6.2126030892       12.3060722833        1.6665714742
  N         8.7295509619       13.7611777771        1.6670189509
  N        16.2419370711        0.7498031263        1.6669920120
  N        14.9867920757        2.9153995421        1.6670391917
  N        13.7354000676        5.0813178961        1.6671057904
  N        12.4883700450        7.2541925256        1.6670293159
  N        11.2353155347        9.4233285139        1.6669868135
  N         9.9825315078       11.5918054486        1.6669701976
  N        -6.2936934902       13.7618704175        1.6669993196
  N         1.2185482099        0.7506025489        1.6670032032
  N        -0.0335809113        2.9192640942        1.6670226847
  N        -1.2936963095        5.0808452536        1.6669673254
  N        -2.5462129502        7.2509565638        1.6669515872
  N        -3.7941207108        9.4220372557        1.6670012291
  N        -5.0421424356       11.5933710916        1.6669885785
  N        -3.7906410611       13.7617967944        1.6671069388
  N         3.7230255193        0.7498124954        1.6670529395
  N         2.4706594630        2.9168955299        1.6671047282
  N         1.2132199062        5.0897026277        1.6669815172
  N        -0.0572840988        7.2571584076        1.6669524009
  N        -1.3002422535        9.4240757724        1.6670294361
  N        -2.5397392903       11.5935656416        1.6671665556
  N        -1.2864385961       13.7666485971        1.6671872467
  N         6.2272394648        0.7490972288        1.6671671696
  N         4.9833193018        2.9136209985        1.6670636348
  N         3.7349457341        5.0802774410        1.6669712216
  N         2.3850591179        7.2467064338        1.6668897654
  N         1.1842245683        9.4437237153        1.6668319916
  N        -0.0414850097       11.6055932564        1.6670878069
  N         1.2184090839       13.7719399052        1.6670867603
  N         8.7332010505        0.7491182629        1.6671797049
  N         7.4892217929        2.9060704418        1.6672315990
  N         6.2548957068        5.0606548835        1.6669996325
  N         5.0681523974        7.2008861947        1.6666646586
  N         3.6868851828        9.5011907590        1.6668786230
  N         2.4574646067       11.6135781313        1.6670343227
  N         3.7234323299       13.7718239585        1.6670912600
  N        11.2378690341        0.7547833468        1.6671270598
  N         9.9905817619        2.9129488424        1.6672672460
  N         8.7510683413        5.0747878509        1.6672280548
  N         7.5145238427        7.2443234171        1.6669105573
  N         6.2377368713        9.4166222962        1.6670027718
  N         4.9688442085       11.5957376010        1.6670909406
  N         6.2246934587       13.7607284831        1.6670891027
  N        13.7383003275        0.7534588740        1.6670599383
  N        12.4869348920        2.9170960962        1.6671483655
  N        11.2422820218        5.0823312739        1.6672773509
  N         9.9977150009        7.2525829841        1.6670706039
  N         8.7378435750        9.4175638456        1.6670908397
  N         7.4787328695       11.5923874103        1.6671222617
