 DBCSR| CPU Multiplication driver                                           XSMM
 DBCSR| Multrec recursion limit                                              512
 DBCSR| Multiplication stack size                                           1000
 DBCSR| Maximum elements for images                                    UNLIMITED
 DBCSR| Multiplicative factor virtual images                                   1
 DBCSR| Use multiplication densification                                       T
 DBCSR| Multiplication size stacks                                             3
 DBCSR| Use memory pool for CPU allocation                                     F
 DBCSR| Number of 3D layers                                               SINGLE
 DBCSR| Use MPI memory allocation                                              F
 DBCSR| Use RMA algorithm                                                      F
 DBCSR| Use Communication thread                                               T
 DBCSR| Communication thread load                                             87
 DBCSR| MPI: My node id                                                        0
 DBCSR| MPI: Number of nodes                                                 768
 DBCSR| OMP: Current number of threads                                         1
 DBCSR| OMP: Max number of threads                                             1
 DBCSR| Split modifier for TAS multiplication algorithm                  1.0E+00


  **** **** ******  **  PROGRAM STARTED AT               2024-08-28 22:55:44.685
 ***** ** ***  *** **   PROGRAM STARTED ON                          i01r01c01s01
 **    ****   ******    PROGRAM STARTED BY                               di76zil
 ***** **    ** ** **   PROGRAM PROCESS ID                                872447
  **** **  *******  **  PROGRAM STARTED IN /hppfs/work/pn36zo/di76zil/39_hBN/1_7
                                           x7_neg_charged_vacancy/24_HSE06_mult_
                                           3_admm_dzvp_filter_1e-6/2_MOM_excited
                                           _state

 CP2K| version string:                                          CP2K version 8.2
 CP2K| source code revision number:                                  git:310b7ab
 CP2K| cp2kflags: omp libint fftw3 libxc parallel mpi3 scalapack xsmm plumed2 mk
 CP2K|            l
 CP2K| is freely available from                            https://www.cp2k.org/
 CP2K| Program compiled at                         Sat May 21 03:58:26 CEST 2022
 CP2K| Program compiled on                                               login03
 CP2K| Program compiled for                    linux-sles15-skylake_avx512-intel
 CP2K| Data directory path    /dss/lrzsys/sys/spack/release/22.2.1/opt/skylake_a
 CP2K| Input file name                                                   HSE.inp
 
 GLOBAL| Force Environment number                                              1
 GLOBAL| Basis set file name                                        BASIS_MOLOPT
 GLOBAL| Potential file name                                      GTH_POTENTIALS
 GLOBAL| MM Potential file name                                     MM_POTENTIAL
 GLOBAL| Coordinate file name                                          struc.cif
 GLOBAL| Method name                                                        CP2K
 GLOBAL| Project name                                                hBN_vacancy
 GLOBAL| Run type                                                         ENERGY
 GLOBAL| FFT library                                                       FFTW3
 GLOBAL| Diagonalization library                                       ScaLAPACK
 GLOBAL| Orthonormality check for eigenvectors                          DISABLED
 GLOBAL| Matrix multiplication library                                    SCALAP
 GLOBAL| All-to-all communication in single precision                          F
 GLOBAL| FFTs using library dependent lengths                                  F
 GLOBAL| Grid backend                                                       AUTO
 GLOBAL| Global print level                                               MEDIUM
 GLOBAL| MPI I/O enabled                                                       T
 GLOBAL| Total number of message passing processes                           768
 GLOBAL| Number of threads for this process                                    1
 GLOBAL| This output is from process                                           0
 GLOBAL| CPU model name             Intel(R) Xeon(R) Platinum 8174 CPU @ 3.10GHz
 GLOBAL| CPUID                                                              1003

 MEMORY| system memory details [Kb]
 MEMORY|                        rank 0           min           max       average
 MEMORY| MemTotal             98436660      98436660      98436708      98436668
 MEMORY| MemFree              77258280      75883008      77262376      76804338
 MEMORY| Buffers                     0             0             0             0
 MEMORY| Cached                3181548       3181544       3356912       3330915
 MEMORY| Slab                   995300        995300       1246784       1150886
 MEMORY| SReclaimable           217264        217264        281512        261221
 MEMORY| MemLikelyFree        80657092      79491532      80696436      80396475


 *** Fundamental physical constants (SI units) ***

 *** Literature: B. J. Mohr and B. N. Taylor,
 ***             CODATA recommended values of the fundamental physical
 ***             constants: 2006, Web Version 5.1
 ***             http://physics.nist.gov/constants

 Speed of light in vacuum [m/s]                             2.99792458000000E+08
 Magnetic constant or permeability of vacuum [N/A**2]       1.25663706143592E-06
 Electric constant or permittivity of vacuum [F/m]          8.85418781762039E-12
 Planck constant (h) [J*s]                                  6.62606896000000E-34
 Planck constant (h-bar) [J*s]                              1.05457162825177E-34
 Elementary charge [C]                                      1.60217648700000E-19
 Electron mass [kg]                                         9.10938215000000E-31
 Electron g factor [ ]                                     -2.00231930436220E+00
 Proton mass [kg]                                           1.67262163700000E-27
 Fine-structure constant                                    7.29735253760000E-03
 Rydberg constant [1/m]                                     1.09737315685270E+07
 Avogadro constant [1/mol]                                  6.02214179000000E+23
 Boltzmann constant [J/K]                                   1.38065040000000E-23
 Atomic mass unit [kg]                                      1.66053878200000E-27
 Bohr radius [m]                                            5.29177208590000E-11

 *** Conversion factors ***

 [u] -> [a.u.]                                              1.82288848426455E+03
 [Angstrom] -> [Bohr] = [a.u.]                              1.88972613288564E+00
 [a.u.] = [Bohr] -> [Angstrom]                              5.29177208590000E-01
 [a.u.] -> [s]                                              2.41888432650478E-17
 [a.u.] -> [fs]                                             2.41888432650478E-02
 [a.u.] -> [J]                                              4.35974393937059E-18
 [a.u.] -> [N]                                              8.23872205491840E-08
 [a.u.] -> [K]                                              3.15774647902944E+05
 [a.u.] -> [kJ/mol]                                         2.62549961709828E+03
 [a.u.] -> [kcal/mol]                                       6.27509468713739E+02
 [a.u.] -> [Pa]                                             2.94210107994716E+13
 [a.u.] -> [bar]                                            2.94210107994716E+08
 [a.u.] -> [atm]                                            2.90362800883016E+08
 [a.u.] -> [eV]                                             2.72113838565563E+01
 [a.u.] -> [Hz]                                             6.57968392072181E+15
 [a.u.] -> [1/cm] (wave numbers)                            2.19474631370540E+05
 [a.u./Bohr**2] -> [1/cm]                                   5.14048714338585E+03
 

 CELL_TOP| Volume [angstrom^3]:                                      3990.999418
 CELL_TOP| Vector a [angstrom    17.528     0.000     0.000   |a| =    17.527900
 CELL_TOP| Vector b [angstrom    -8.764    15.180     0.000   |b| =    17.527900
 CELL_TOP| Vector c [angstrom     0.000     0.000    15.000   |c| =    15.000000
 CELL_TOP| Angle (b,c), alpha [degree]:                                90.000000
 CELL_TOP| Angle (a,c), beta  [degree]:                                90.000000
 CELL_TOP| Angle (a,b), gamma [degree]:                               120.000000
 CELL_TOP| Numerically orthorhombic:                                          NO

 CELL_CIF| Volume [angstrom^3]:                                      3990.999418
 CELL_CIF| Vector a [angstrom    17.528     0.000     0.000   |a| =    17.527900
 CELL_CIF| Vector b [angstrom    -8.764    15.180     0.000   |b| =    17.527900
 CELL_CIF| Vector c [angstrom     0.000     0.000    15.000   |c| =    15.000000
 CELL_CIF| Angle (b,c), alpha [degree]:                                90.000000
 CELL_CIF| Angle (a,c), beta  [degree]:                                90.000000
 CELL_CIF| Angle (a,b), gamma [degree]:                               120.000000
 CELL_CIF| Numerically orthorhombic:                                          NO

 *** WARNING in topology_cif.F:260 :: The fields                        ***
 *** (_symmetry_equiv_pos_as_xyz) or (_space_group_symop_operation_xyz) ***
 *** were not found in CIF file!                                        ***

 
 GENERATE|  Preliminary Number of Bonds generated:                             0
 GENERATE|  Achieved consistency in connectivity generation.

 CELL| Volume [angstrom^3]:                                          3990.999418
 CELL| Vector a [angstrom]:      17.528     0.000     0.000   |a| =    17.527900
 CELL| Vector b [angstrom]:      -8.764    15.180     0.000   |b| =    17.527900
 CELL| Vector c [angstrom]:       0.000     0.000    15.000   |c| =    15.000000
 CELL| Angle (b,c), alpha [degree]:                                    90.000000
 CELL| Angle (a,c), beta  [degree]:                                    90.000000
 CELL| Angle (a,b), gamma [degree]:                                   120.000000
 CELL| Numerically orthorhombic:                                              NO

 CELL_REF| Volume [angstrom^3]:                                      3990.999418
 CELL_REF| Vector a [angstrom    17.528     0.000     0.000   |a| =    17.527900
 CELL_REF| Vector b [angstrom    -8.764    15.180     0.000   |b| =    17.527900
 CELL_REF| Vector c [angstrom     0.000     0.000    15.000   |c| =    15.000000
 CELL_REF| Angle (b,c), alpha [degree]:                                90.000000
 CELL_REF| Angle (a,c), beta  [degree]:                                90.000000
 CELL_REF| Angle (a,b), gamma [degree]:                               120.000000
 CELL_REF| Numerically orthorhombic:                                          NO

 *******************************************************************************
 *******************************************************************************
 **                                                                           **
 **     #####                         ##              ##                      **
 **    ##   ##            ##          ##              ##                      **
 **   ##     ##                       ##            ######                    **
 **   ##     ##  ##   ##  ##   #####  ##  ##   ####   ##    #####    #####    **
 **   ##     ##  ##   ##  ##  ##      ## ##   ##      ##   ##   ##  ##   ##   **
 **   ##  ## ##  ##   ##  ##  ##      ####     ###    ##   ######   ######    **
 **    ##  ###   ##   ##  ##  ##      ## ##      ##   ##   ##       ##        **
 **     #######   #####   ##   #####  ##  ##  ####    ##    #####   ##        **
 **           ##                                                    ##        **
 **                                                                           **
 **                                                ... make the atoms dance   **
 **                                                                           **
 **            Copyright (C) by CP2K developers group (2000-2021)             **
 **                      J. Chem. Phys. 152, 194103 (2020)                    **
 **                                                                           **
 *******************************************************************************

 DFT| Spin unrestricted (spin-polarized) Kohn-Sham calculation               UKS
 DFT| Multiplicity                                                             3
 DFT| Number of spin states                                                    2
 DFT| Charge                                                                  -1
 DFT| Self-interaction correction (SIC)                                       NO
 DFT| Cutoffs: density                                              1.000000E-10
 DFT|          gradient                                             1.000000E-10
 DFT|          tau                                                  1.000000E-10
 DFT|          cutoff_smoothing_range                               0.000000E+00
 DFT| XC density smoothing                                                  NONE
 DFT| XC derivatives                                                          PW
 FUNCTIONAL| ROUTINE=NEW
 FUNCTIONAL| PBE:
 FUNCTIONAL| J.P.Perdew, K.Burke, M.Ernzerhof, Phys. Rev. Letter, vol. 77, n 18,
 FUNCTIONAL|  pp. 3865-3868, (1996)sx=0.000sc=1.000{spin polarized}             
 FUNCTIONAL| XWPBE:
 FUNCTIONAL| Jochen Heyd and Gustavo E. Scuseria, J. Chem. Phys., 120, 7274 {LSD
 FUNCTIONAL|  version}                                                          

 QS| Method:                                                                 GPW
 QS| Density plane wave grid type                        NON-SPHERICAL FULLSPACE
 QS| Number of grid levels:                                                    4
 QS| Density cutoff [a.u.]:                                                250.0
 QS| Multi grid cutoff [a.u.]: 1) grid level                               250.0
 QS|                           2) grid level                                83.3
 QS|                           3) grid level                                27.8
 QS|                           4) grid level                                 9.3
 QS| Grid level progression factor:                                          3.0
 QS| Relative density cutoff [a.u.]:                                        50.0
 QS| Interaction thresholds: eps_pgf_orb:                                1.0E-12
 QS|                         eps_filter_matrix:                          0.0E+00
 QS|                         eps_core_charge:                            1.0E-14
 QS|                         eps_rho_gspace:                             1.0E-12
 QS|                         eps_rho_rspace:                             1.0E-12
 QS|                         eps_gvg_rspace:                             1.0E-06
 QS|                         eps_ppl:                                    1.0E-02
 QS|                         eps_ppnl:                                   1.0E-08


 ATOMIC KIND INFORMATION

  1. Atomic kind: B                                     Number of atoms:      48

     Orbital Basis Set                                    TZVP-MOLOPT-PBE-GTH-q3

       Number of orbital shell sets:                                           1
       Number of orbital shells:                                               7
       Number of primitive Cartesian functions:                                5
       Number of Cartesian basis functions:                                   18
       Number of spherical basis functions:                                   17
       Norm type:                                                              2

       Normalised Cartesian orbitals:

                        Set   Shell   Orbital            Exponent    Coefficient

                          1       1    2s                3.575233      -0.251277
                                                         1.347699      -0.198106
                                                         0.614553       0.172878
                                                         0.253523       0.151700
                                                         0.085137       0.035450

                          1       2    3s                3.575233       0.549636
                                                         1.347699       0.196373
                                                         0.614553      -0.255207
                                                         0.253523      -0.051628
                                                         0.085137       0.138907

                          1       3    4s                3.575233      -2.548426
                                                         1.347699      -0.015252
                                                         0.614553       0.995642
                                                         0.253523      -0.496980
                                                         0.085137       0.095773

                          1       4    3px               3.575233      -0.379954
                                                         1.347699      -0.232253
                                                         0.614553      -0.197045
                                                         0.253523      -0.107441
                                                         0.085137      -0.025250
                          1       4    3py               3.575233      -0.379954
                                                         1.347699      -0.232253
                                                         0.614553      -0.197045
                                                         0.253523      -0.107441
                                                         0.085137      -0.025250
                          1       4    3pz               3.575233      -0.379954
                                                         1.347699      -0.232253
                                                         0.614553      -0.197045
                                                         0.253523      -0.107441
                                                         0.085137      -0.025250

                          1       5    4px               3.575233       0.795891
                                                         1.347699       0.510277
                                                         0.614553       0.370808
                                                         0.253523       0.096082
                                                         0.085137      -0.053145
                          1       5    4py               3.575233       0.795891
                                                         1.347699       0.510277
                                                         0.614553       0.370808
                                                         0.253523       0.096082
                                                         0.085137      -0.053145
                          1       5    4pz               3.575233       0.795891
                                                         1.347699       0.510277
                                                         0.614553       0.370808
                                                         0.253523       0.096082
                                                         0.085137      -0.053145

                          1       6    5px               3.575233       1.547907
                                                         1.347699       0.913267
                                                         0.614553       0.659546
                                                         0.253523      -0.229482
                                                         0.085137       0.016583
                          1       6    5py               3.575233       1.547907
                                                         1.347699       0.913267
                                                         0.614553       0.659546
                                                         0.253523      -0.229482
                                                         0.085137       0.016583
                          1       6    5pz               3.575233       1.547907
                                                         1.347699       0.913267
                                                         0.614553       0.659546
                                                         0.253523      -0.229482
                                                         0.085137       0.016583

                          1       7    4dx2              3.575233      -0.146757
                                                         1.347699       0.616788
                                                         0.614553       0.145475
                                                         0.253523       0.099150
                                                         0.085137       0.002211
                          1       7    4dxy              3.575233      -0.254191
                                                         1.347699       1.068308
                                                         0.614553       0.251971
                                                         0.253523       0.171733
                                                         0.085137       0.003829
                          1       7    4dxz              3.575233      -0.254191
                                                         1.347699       1.068308
                                                         0.614553       0.251971
                                                         0.253523       0.171733
                                                         0.085137       0.003829
                          1       7    4dy2              3.575233      -0.146757
                                                         1.347699       0.616788
                                                         0.614553       0.145475
                                                         0.253523       0.099150
                                                         0.085137       0.002211
                          1       7    4dyz              3.575233      -0.254191
                                                         1.347699       1.068308
                                                         0.614553       0.251971
                                                         0.253523       0.171733
                                                         0.085137       0.003829
                          1       7    4dz2              3.575233      -0.146757
                                                         1.347699       0.616788
                                                         0.614553       0.145475
                                                         0.253523       0.099150
                                                         0.085137       0.002211

     Auxiliary Fit Basis Set                                         admm-dzp-q3

       Number of orbital shell sets:                                           5
       Number of orbital shells:                                               5
       Number of primitive Cartesian functions:                                7
       Number of Cartesian basis functions:                                   14
       Number of spherical basis functions:                                   13
       Norm type:                                                              2

       Normalised Cartesian orbitals:

                        Set   Shell   Orbital            Exponent    Coefficient

                          1       1    1s                2.724441      -0.774936
                                                         0.381865       0.406364

                          2       1    1s                0.139915       0.163045

                          3       1    1px               2.606438      -1.784494
                                                         0.633501       0.935760
                          3       1    1py               2.606438      -1.784494
                                                         0.633501       0.935760
                          3       1    1pz               2.606438      -1.784494
                                                         0.633501       0.935760

                          4       1    1px               0.153477       0.136928
                          4       1    1py               0.153477       0.136928
                          4       1    1pz               0.153477       0.136928

                          5       1    1dx2              0.343000       0.253031
                          5       1    1dxy              0.343000       0.438263
                          5       1    1dxz              0.343000       0.438263
                          5       1    1dy2              0.343000       0.253031
                          5       1    1dyz              0.343000       0.438263
                          5       1    1dz2              0.343000       0.253031

       Atomic covalent radius [Angstrom]:                                  0.820

       Atomic van der Waals radius [Angstrom]:                             1.920

     GTH Potential information for                                   GTH-PADE-q3

       Description:                       Goedecker-Teter-Hutter pseudopotential
                                           Goedecker et al., PRB 54, 1703 (1996)
                                          Hartwigsen et al., PRB 58, 3641 (1998)
                                                      Krack, TCA 114, 145 (2005)

       Gaussian exponent of the core charge distribution:               2.655410
       Electronic configuration (s p d ...):                               2   1

       Parameters of the local part of the GTH pseudopotential:

                          rloc        C1          C2          C3          C4
                        0.433930   -5.578642    0.804251

       Parameters of the non-local part of the GTH pseudopotential:

                   l      r(l)      h(i,j,l)

                   0    0.373843    6.233928
                   1    0.360393

  2. Atomic kind: N                                     Number of atoms:      49

     Orbital Basis Set                                           TZVP-MOLOPT-GTH

       Number of orbital shell sets:                                           1
       Number of orbital shells:                                               7
       Number of primitive Cartesian functions:                                7
       Number of Cartesian basis functions:                                   18
       Number of spherical basis functions:                                   17
       Norm type:                                                              2

       Normalised Cartesian orbitals:

                        Set   Shell   Orbital            Exponent    Coefficient

                          1       1    2s                9.042730      -0.237404
                                                         3.882225      -0.265910
                                                         1.512880       0.102064
                                                         0.586631       0.295369
                                                         0.222851       0.088647
                                                         0.084583       0.003860
                                                         0.039194       0.000722

                          1       2    3s                9.042730       0.259152
                                                         3.882225       0.251432
                                                         1.512880      -0.043896
                                                         0.586631      -0.328079
                                                         0.222851       0.175857
                                                         0.084583       0.069169
                                                         0.039194       0.004207

                          1       3    4s                9.042730       0.330627
                                                         3.882225       0.738242
                                                         1.512880      -0.570149
                                                         0.586631       0.474918
                                                         0.222851       0.192885
                                                         0.084583      -0.214824
                                                         0.039194       0.031577

                          1       4    3px               9.042730       0.822162
                                                         3.882225       0.990771
                                                         1.512880       0.665657
                                                         0.586631       0.321705
                                                         0.222851       0.063706
                                                         0.084583       0.004155
                                                         0.039194      -0.000005
                          1       4    3py               9.042730       0.822162
                                                         3.882225       0.990771
                                                         1.512880       0.665657
                                                         0.586631       0.321705
                                                         0.222851       0.063706
                                                         0.084583       0.004155
                                                         0.039194      -0.000005
                          1       4    3pz               9.042730       0.822162
                                                         3.882225       0.990771
                                                         1.512880       0.665657
                                                         0.586631       0.321705
                                                         0.222851       0.063706
                                                         0.084583       0.004155
                                                         0.039194      -0.000005

                          1       5    4px               9.042730      -0.251449
                                                         3.882225      -0.215479
                                                         1.512880      -0.200519
                                                         0.586631      -0.125283
                                                         0.222851       0.136219
                                                         0.084583       0.034362
                                                         0.039194       0.000879
                          1       5    4py               9.042730      -0.251449
                                                         3.882225      -0.215479
                                                         1.512880      -0.200519
                                                         0.586631      -0.125283
                                                         0.222851       0.136219
                                                         0.084583       0.034362
                                                         0.039194       0.000879
                          1       5    4pz               9.042730      -0.251449
                                                         3.882225      -0.215479
                                                         1.512880      -0.200519
                                                         0.586631      -0.125283
                                                         0.222851       0.136219
                                                         0.084583       0.034362
                                                         0.039194       0.000879

                          1       6    5px               9.042730      -1.546561
                                                         3.882225       0.742834
                                                         1.512880      -1.783177
                                                         0.586631       0.969458
                                                         0.222851       0.077327
                                                         0.084583      -0.117711
                                                         0.039194       0.027593
                          1       6    5py               9.042730      -1.546561
                                                         3.882225       0.742834
                                                         1.512880      -1.783177
                                                         0.586631       0.969458
                                                         0.222851       0.077327
                                                         0.084583      -0.117711
                                                         0.039194       0.027593
                          1       6    5pz               9.042730      -1.546561
                                                         3.882225       0.742834
                                                         1.512880      -1.783177
                                                         0.586631       0.969458
                                                         0.222851       0.077327
                                                         0.084583      -0.117711
                                                         0.039194       0.027593

                          1       7    4dx2              9.042730       1.099742
                                                         3.882225       0.532064
                                                         1.512880       0.873643
                                                         0.586631       0.456348
                                                         0.222851       0.017840
                                                         0.084583      -0.000857
                                                         0.039194      -0.000086
                          1       7    4dxy              9.042730       1.904809
                                                         3.882225       0.921562
                                                         1.512880       1.513195
                                                         0.586631       0.790419
                                                         0.222851       0.030900
                                                         0.084583      -0.001484
                                                         0.039194      -0.000150
                          1       7    4dxz              9.042730       1.904809
                                                         3.882225       0.921562
                                                         1.512880       1.513195
                                                         0.586631       0.790419
                                                         0.222851       0.030900
                                                         0.084583      -0.001484
                                                         0.039194      -0.000150
                          1       7    4dy2              9.042730       1.099742
                                                         3.882225       0.532064
                                                         1.512880       0.873643
                                                         0.586631       0.456348
                                                         0.222851       0.017840
                                                         0.084583      -0.000857
                                                         0.039194      -0.000086
                          1       7    4dyz              9.042730       1.904809
                                                         3.882225       0.921562
                                                         1.512880       1.513195
                                                         0.586631       0.790419
                                                         0.222851       0.030900
                                                         0.084583      -0.001484
                                                         0.039194      -0.000150
                          1       7    4dz2              9.042730       1.099742
                                                         3.882225       0.532064
                                                         1.512880       0.873643
                                                         0.586631       0.456348
                                                         0.222851       0.017840
                                                         0.084583      -0.000857
                                                         0.039194      -0.000086

     Auxiliary Fit Basis Set                                         admm-dzp-q5

       Number of orbital shell sets:                                           5
       Number of orbital shells:                                               5
       Number of primitive Cartesian functions:                                7
       Number of Cartesian basis functions:                                   14
       Number of spherical basis functions:                                   13
       Norm type:                                                              2

       Normalised Cartesian orbitals:

                        Set   Shell   Orbital            Exponent    Coefficient

                          1       1    1s                6.298138      -0.713353
                                                         0.651986       0.561779

                          2       1    1s                0.203084       0.215609

                          3       1    1px               4.446382      -1.980936
                                                         0.998459       1.560023
                          3       1    1py               4.446382      -1.980936
                                                         0.998459       1.560023
                          3       1    1pz               4.446382      -1.980936
                                                         0.998459       1.560023

                          4       1    1px               0.225435       0.221420
                          4       1    1py               0.225435       0.221420
                          4       1    1pz               0.225435       0.221420

                          5       1    1dx2              0.817000       1.155575
                          5       1    1dxy              0.817000       2.001514
                          5       1    1dxz              0.817000       2.001514
                          5       1    1dy2              0.817000       1.155575
                          5       1    1dyz              0.817000       2.001514
                          5       1    1dz2              0.817000       1.155575

       Atomic covalent radius [Angstrom]:                                  0.750

       Atomic van der Waals radius [Angstrom]:                             1.550

     GTH Potential information for                                   GTH-PADE-q5

       Description:                       Goedecker-Teter-Hutter pseudopotential
                                           Goedecker et al., PRB 54, 1703 (1996)
                                          Hartwigsen et al., PRB 58, 3641 (1998)
                                                      Krack, TCA 114, 145 (2005)

       Gaussian exponent of the core charge distribution:               5.979100
       Electronic configuration (s p d ...):                               2   3

       Parameters of the local part of the GTH pseudopotential:

                          rloc        C1          C2          C3          C4
                        0.289179  -12.234820    1.766407

       Parameters of the non-local part of the GTH pseudopotential:

                   l      r(l)      h(i,j,l)

                   0    0.256605   13.552243
                   1    0.270134


 MOLECULE KIND INFORMATION


 All atoms are their own molecule, skipping detailed information


 TOTAL NUMBERS AND MAXIMUM NUMBERS

  Total number of            - Atomic kinds:                                   2
                             - Atoms:                                         97
                             - Shell sets:                                    97
                             - Shells:                                       679
                             - Primitive Cartesian functions:                583
                             - Cartesian basis functions:                   1746
                             - Spherical basis functions:                   1649

  Maximum angular momentum of- Orbital basis functions:                        2
                             - Local part of the GTH pseudopotential:          2
                             - Non-local part of the GTH pseudopotential:      0

  AUX_FIT ADMM-Basis: 
  Total number of            - Shell sets:                                   485
                             - Shells:                                       485
                             - Primitive Cartesian functions:                679
                             - Cartesian basis functions:                   1358
                             - Spherical basis functions:                   1261
                               Maximum angular momentum                        2


 MODULE QUICKSTEP:  ATOMIC COORDINATES IN angstrom

  Atom  Kind  Element       X           Y           Z          Z(eff)       Mass

       1     1 B    5    7.476831   14.484024    1.666807      3.0000      10.8110
       2     1 B    5   14.989955    1.473079    1.666746      3.0000      10.8110
       3     1 B    5   13.738880    3.640836    1.667132      3.0000      10.8110
       4     1 B    5   12.486784    5.808723    1.667115      3.0000      10.8110
       5     1 B    5   11.234060    7.976389    1.666793      3.0000      10.8110
       6     1 B    5    9.980757   10.144432    1.666656      3.0000      10.8110
       7     1 B    5    8.728116   12.314380    1.667159      3.0000      10.8110
       8     1 B    5   -7.546364   14.484636    1.666824      3.0000      10.8110
       9     1 B    5   -0.034359    1.474303    1.666841      3.0000      10.8110
      10     1 B    5   -1.285221    3.642664    1.666885      3.0000      10.8110
      11     1 B    5   -2.535607    5.808613    1.666633      3.0000      10.8110
      12     1 B    5   -3.788135    7.976262    1.666977      3.0000      10.8110
      13     1 B    5   -5.041133   10.144946    1.666722      3.0000      10.8110
      14     1 B    5   -6.294068   12.314534    1.666825      3.0000      10.8110
      15     1 B    5   -5.041167   14.484826    1.666977      3.0000      10.8110
      16     1 B    5    2.470314    1.475574    1.667101      3.0000      10.8110
      17     1 B    5    1.218529    3.645033    1.667095      3.0000      10.8110
      18     1 B    5   -0.029230    5.811977    1.666684      3.0000      10.8110
      19     1 B    5   -1.281724    7.975508    1.666696      3.0000      10.8110
      20     1 B    5   -2.534842   10.144443    1.667076      3.0000      10.8110
      21     1 B    5   -3.788054   12.314589    1.667113      3.0000      10.8110
      22     1 B    5   -2.535606   14.484590    1.667094      3.0000      10.8110
      23     1 B    5    4.975810    1.475415    1.667105      3.0000      10.8110
      24     1 B    5    3.723212    3.645693    1.667167      3.0000      10.8110
      25     1 B    5    2.483783    5.823187    1.667126      3.0000      10.8110
      26     1 B    5    1.237365    7.982160    1.666908      3.0000      10.8110
      27     1 B    5   -0.028674   10.143960    1.667155      3.0000      10.8110
      28     1 B    5   -1.282084   12.314371    1.667326      3.0000      10.8110
      29     1 B    5   -0.030888   14.483819    1.667055      3.0000      10.8110
      30     1 B    5    7.480118    1.474123    1.667177      3.0000      10.8110
      31     1 B    5    6.227508    3.644816    1.667104      3.0000      10.8110
      32     1 B    5    4.962414    5.823094    1.666576      3.0000      10.8110
      33     1 B    5    2.476640   10.128387    1.666842      3.0000      10.8110
      34     1 B    5    1.222766   12.313354    1.666930      3.0000      10.8110
      35     1 B    5    2.472485   14.482794    1.666739      3.0000      10.8110
      36     1 B    5    9.983735    1.472877    1.667255      3.0000      10.8110
      37     1 B    5    8.730887    3.642574    1.667306      3.0000      10.8110
      38     1 B    5    7.474813    5.811824    1.666697      3.0000      10.8110
      39     1 B    5    6.208753    7.981876    1.666677      3.0000      10.8110
      40     1 B    5    4.969428   10.128281    1.667138      3.0000      10.8110
      41     1 B    5    3.722751   12.310459    1.666915      3.0000      10.8110
      42     1 B    5    4.973339   14.483090    1.667048      3.0000      10.8110
      43     1 B    5   12.486888    1.472500    1.667221      3.0000      10.8110
      44     1 B    5   11.234921    3.640922    1.667470      3.0000      10.8110
      45     1 B    5    9.981379    5.808779    1.667252      3.0000      10.8110
      46     1 B    5    8.727781    7.975714    1.666930      3.0000      10.8110
      47     1 B    5    7.474831   10.144148    1.667020      3.0000      10.8110
      48     1 B    5    6.223135   12.313569    1.667191      3.0000      10.8110
      49     2 N    7    8.731032   13.762631    1.666790      5.0000      14.0067
      50     2 N    7   16.241496    0.750550    1.666568      5.0000      14.0067
      51     2 N    7   14.988869    2.917570    1.666707      5.0000      14.0067
      52     2 N    7   13.737326    5.085233    1.666780      5.0000      14.0067
      53     2 N    7   12.486873    7.253904    1.666780      5.0000      14.0067
      54     2 N    7   11.236355    9.423075    1.666484      5.0000      14.0067
      55     2 N    7    9.984247   11.593027    1.666747      5.0000      14.0067
      56     2 N    7   -6.293110   13.760841    1.666609      5.0000      14.0067
      57     2 N    7    1.217536    0.748931    1.666753      5.0000      14.0067
      58     2 N    7   -0.036681    2.915781    1.666759      5.0000      14.0067
      59     2 N    7   -1.289244    5.084290    1.666428      5.0000      14.0067
      60     2 N    7   -2.540942    7.253328    1.666498      5.0000      14.0067
      61     2 N    7   -3.790566    9.423056    1.666738      5.0000      14.0067
      62     2 N    7   -5.041053   11.592238    1.666610      5.0000      14.0067
      63     2 N    7   -3.789018   13.760885    1.666923      5.0000      14.0067
      64     2 N    7    3.722992    0.748189    1.666974      5.0000      14.0067
      65     2 N    7    2.468824    2.913315    1.666866      5.0000      14.0067
      66     2 N    7    1.212229    5.079098    1.666876      5.0000      14.0067
      67     2 N    7   -0.042989    7.253287    1.666499      5.0000      14.0067
      68     2 N    7   -1.290373    9.424189    1.666839      5.0000      14.0067
      69     2 N    7   -2.538377   11.593064    1.666967      5.0000      14.0067
      70     2 N    7   -1.285134   13.762550    1.666928      5.0000      14.0067
      71     2 N    7    6.228379    0.748790    1.666898      5.0000      14.0067
      72     2 N    7    4.977329    2.913139    1.666883      5.0000      14.0067
      73     2 N    7    3.723103    5.072369    1.666703      5.0000      14.0067
      74     2 N    7    2.405804    7.217463    1.666466      5.0000      14.0067
      75     2 N    7    1.206805    9.430694    1.666635      5.0000      14.0067
      76     2 N    7   -0.036179   11.596562    1.666933      5.0000      14.0067
      77     2 N    7    1.218658   13.765050    1.666665      5.0000      14.0067
      78     2 N    7    8.732187    0.750384    1.666913      5.0000      14.0067
      79     2 N    7    7.482537    2.915583    1.666953      5.0000      14.0067
      80     2 N    7    6.233679    5.078821    1.666621      5.0000      14.0067
      81     2 N    7    5.040272    7.217370    1.666118      5.0000      14.0067
      82     2 N    7    3.723014    9.498748    1.666400      5.0000      14.0067
      83     2 N    7    2.467621   11.601722    1.666738      5.0000      14.0067
      84     2 N    7    3.722927   13.765597    1.666684      5.0000      14.0067
      85     2 N    7   11.235388    0.751657    1.666886      5.0000      14.0067
      86     2 N    7    9.984838    2.917527    1.667191      5.0000      14.0067
      87     2 N    7    8.734943    5.084270    1.666886      5.0000      14.0067
      88     2 N    7    7.489021    7.253185    1.666619      5.0000      14.0067
      89     2 N    7    6.239358    9.430610    1.666642      5.0000      14.0067
      90     2 N    7    4.978169   11.601740    1.666900      5.0000      14.0067
      91     2 N    7    6.227180   13.765277    1.666834      5.0000      14.0067
      92     2 N    7   13.738352    0.751813    1.666734      5.0000      14.0067
      93     2 N    7   12.486895    2.918102    1.667061      5.0000      14.0067
      94     2 N    7   11.236273    5.085300    1.667016      5.0000      14.0067
      95     2 N    7    9.986856    7.253464    1.666714      5.0000      14.0067
      96     2 N    7    8.736344    9.424283    1.666636      5.0000      14.0067
      97     2 N    7    7.482098   11.596739    1.666940      5.0000      14.0067




 SCF PARAMETERS         Density guess:                                   RESTART
                        --------------------------------------------------------
                        max_scf:                                             200
                        max_scf_history:                                       0
                        max_diis:                                              4
                        --------------------------------------------------------
                        eps_scf:                                        1.00E-07
                        eps_scf_history:                                0.00E+00
                        eps_diis:                                       1.00E-01
                        eps_eigval:                                     1.00E-05
                        --------------------------------------------------------
                        level_shift [a.u.]:                                 0.00
                        added MOs                                        10   10
                        MOM enabled
                        --------------------------------------------------------
                        Mixing method:                           DIRECT_P_MIXING
                        --------------------------------------------------------
                        No outer SCF

 PW_GRID| Information for grid number                                          1
 PW_GRID| Grid distributed over                                   768 processors
 PW_GRID| Real space group dimensions                                    24   32
 PW_GRID| the grid is blocked:                                               YES
 PW_GRID| Cutoff [a.u.]                                                    250.0
 PW_GRID| spherical cutoff:                                                   NO
 PW_GRID|   Bounds   1           -120     119                Points:         240
 PW_GRID|   Bounds   2           -120     119                Points:         240
 PW_GRID|   Bounds   3           -108     107                Points:         216
 PW_GRID| Volume element (a.u.^3)  0.2165E-02     Volume (a.u.^3)     26932.5994
 PW_GRID| Grid span                                                    FULLSPACE
 PW_GRID|   Distribution                         Average         Max         Min
 PW_GRID|   G-Vectors                            16200.0       16800       14400
 PW_GRID|   G-Rays                                  67.5          70          60
 PW_GRID|   Real Space Points                    16200.0       16800       14400

 PW_GRID| Information for grid number                                          2
 PW_GRID| Number of the reference grid                                         1
 PW_GRID| Grid distributed over                                   768 processors
 PW_GRID| Real space group dimensions                                    24   32
 PW_GRID| the grid is blocked:                                                NO
 PW_GRID| Cutoff [a.u.]                                                     83.3
 PW_GRID| spherical cutoff:                                                   NO
 PW_GRID|   Bounds   1            -72      71                Points:         144
 PW_GRID|   Bounds   2            -72      71                Points:         144
 PW_GRID|   Bounds   3            -60      59                Points:         120
 PW_GRID| Volume element (a.u.^3)  0.1082E-01     Volume (a.u.^3)     26932.5994
 PW_GRID| Grid span                                                    FULLSPACE
 PW_GRID|   Distribution                         Average         Max         Min
 PW_GRID|   G-Vectors                             3240.0       10080           0
 PW_GRID|   G-Rays                                  22.5          70           0
 PW_GRID|   Real Space Points                     3240.0        3600        2880

 PW_GRID| Information for grid number                                          3
 PW_GRID| Number of the reference grid                                         1
 PW_GRID| Grid distributed over                                   768 processors
 PW_GRID| Real space group dimensions                                    24   32
 PW_GRID| the grid is blocked:                                                NO
 PW_GRID| Cutoff [a.u.]                                                     27.8
 PW_GRID| spherical cutoff:                                                   NO
 PW_GRID|   Bounds   1            -40      39                Points:          80
 PW_GRID|   Bounds   2            -40      39                Points:          80
 PW_GRID|   Bounds   3            -36      35                Points:          72
 PW_GRID| Volume element (a.u.^3)  0.5845E-01     Volume (a.u.^3)     26932.5994
 PW_GRID| Grid span                                                    FULLSPACE
 PW_GRID|   Distribution                         Average         Max         Min
 PW_GRID|   G-Vectors                              600.0        5600           0
 PW_GRID|   G-Rays                                   7.5          70           0
 PW_GRID|   Real Space Points                      600.0         864         432

 PW_GRID| Information for grid number                                          4
 PW_GRID| Number of the reference grid                                         1
 PW_GRID| Grid distributed over                                   768 processors
 PW_GRID| Real space group dimensions                                    24   32
 PW_GRID| the grid is blocked:                                                NO
 PW_GRID| Cutoff [a.u.]                                                      9.3
 PW_GRID| spherical cutoff:                                                   NO
 PW_GRID|   Bounds   1            -22      22                Points:          45
 PW_GRID|   Bounds   2            -22      22                Points:          45
 PW_GRID|   Bounds   3            -20      19                Points:          40
 PW_GRID| Volume element (a.u.^3)  0.3325         Volume (a.u.^3)     26932.5994
 PW_GRID| Grid span                                                    FULLSPACE
 PW_GRID|   Distribution                         Average         Max         Min
 PW_GRID|   G-Vectors                              105.5        3150           0
 PW_GRID|   G-Rays                                   2.3          70           0
 PW_GRID|   Real Space Points                      105.5         160          40

 POISSON| Solver                                                        PERIODIC
 POISSON| Periodicity                                                        XYZ

 RS_GRID| Information for grid number                                          1
 RS_GRID|   Bounds   1           -120     119                Points:         240
 RS_GRID|   Bounds   2           -120     119                Points:         240
 RS_GRID|   Bounds   3           -108     107                Points:         216
 RS_GRID| Real space distribution over                                  8 groups
 RS_GRID| Real space distribution along direction                              1
 RS_GRID| Border size                                                         54
 RS_GRID| Real space distribution over                                 12 groups
 RS_GRID| Real space distribution along direction                              2
 RS_GRID| Border size                                                         54
 RS_GRID| Real space distribution over                                  8 groups
 RS_GRID| Real space distribution along direction                              3
 RS_GRID| Border size                                                         54
 RS_GRID|   Distribution                         Average         Max         Min
 RS_GRID|   Planes                                 138.0         138         138
 RS_GRID|   Distribution                         Average         Max         Min
 RS_GRID|   Planes                                 128.0         128         128
 RS_GRID|   Distribution                         Average         Max         Min
 RS_GRID|   Planes                                 135.0         135         135

 RS_GRID| Information for grid number                                          2
 RS_GRID|   Bounds   1            -72      71                Points:         144
 RS_GRID|   Bounds   2            -72      71                Points:         144
 RS_GRID|   Bounds   3            -60      59                Points:         120
 RS_GRID| Real space fully replicated
 RS_GRID| Group size                                                           1

 RS_GRID| Information for grid number                                          3
 RS_GRID|   Bounds   1            -40      39                Points:          80
 RS_GRID|   Bounds   2            -40      39                Points:          80
 RS_GRID|   Bounds   3            -36      35                Points:          72
 RS_GRID| Real space fully replicated
 RS_GRID| Group size                                                           1

 RS_GRID| Information for grid number                                          4
 RS_GRID|   Bounds   1            -22      22                Points:          45
 RS_GRID|   Bounds   2            -22      22                Points:          45
 RS_GRID|   Bounds   3            -20      19                Points:          40
 RS_GRID| Real space fully replicated
 RS_GRID| Group size                                                           1

 *** WARNING in hfx_types.F:1968 :: Periodic Hartree Fock calculation      ***
 *** requested with use of a truncated or shortrange potential. The cutoff ***
 *** radius is larger than half the minimal cell dimension. This may lead  ***
 *** to unphysical total energies. Reduce the cutoff radius in order to    ***
 *** avoid possible problems.                                              ***


  HFX_INFO| Replica ID:                                                        1
  HFX_INFO| FRACTION:                                               0.2500000000
  HFX_INFO| Interaction Potential:                                    SHORTRANGE
  HFX_INFO| Omega:                                                  0.1100000000
  HFX_INFO| Cutoff Radius [angstrom]:                              14.2786927855
  HFX_INFO| EPS_SCHWARZ:                                                 1.0E-06
  HFX_INFO| EPS_SCHWARZ_FORCES                                           1.0E-06
  HFX_INFO| EPS_STORAGE_SCALING:                                         1.0E-01
  HFX_INFO| NBINS:                                                            64
  HFX_INFO| BLOCK_SIZE:                                                        1
  HFX_INFO| NUMBER_OF_SHELLS:                                               AUTO
  HFX_INFO| Number of periodic shells considered:                             -1
  HFX_INFO| Number of periodic cells considered:                              33


 Spin 1

 Number of electrons:                                                        196
 Number of occupied orbitals:                                                196
 Number of molecular orbitals:                                               206

 Spin 2

 Number of electrons:                                                        194
 Number of occupied orbitals:                                                194
 Number of molecular orbitals:                                               204

 Number of orbital functions:                                               1649
 Number of independent orbital functions:                                   1649

 Extrapolation method: initial_guess

 MO| EIGENVALUES AND OCCUPATION NUMBERS AFTER SCF STEP 0
 MO|
 MO|  Index      Eigenvalue [a.u.]        Eigenvalue [eV]             Occupation
 MO|      1              -0.872976             -23.754896               1.000000
 MO|      2              -0.861144             -23.432924               1.000000
 MO|      3              -0.858959             -23.373474               1.000000
 MO|      4              -0.858941             -23.372978               1.000000
 MO|      5              -0.852622             -23.201015               1.000000
 MO|      6              -0.852617             -23.200876               1.000000
 MO|      7              -0.841281             -22.892431               1.000000
 MO|      8              -0.825987             -22.476247               1.000000
 MO|      9              -0.825980             -22.476065               1.000000
 MO|     10              -0.825971             -22.475808               1.000000
 MO|     11              -0.825528             -22.463763               1.000000
 MO|     12              -0.825505             -22.463147               1.000000
 MO|     13              -0.822797             -22.389446               1.000000
 MO|     14              -0.811580             -22.084228               1.000000
 MO|     15              -0.810217             -22.047113               1.000000
 MO|     16              -0.810189             -22.046351               1.000000
 MO|     17              -0.806098             -21.935050               1.000000
 MO|     18              -0.806064             -21.934117               1.000000
 MO|     19              -0.793252             -21.585472               1.000000
 MO|     20              -0.777831             -21.165852               1.000000
 MO|     21              -0.777565             -21.158607               1.000000
 MO|     22              -0.777556             -21.158368               1.000000
 MO|     23              -0.777396             -21.154034               1.000000
 MO|     24              -0.777368             -21.153259               1.000000
 MO|     25              -0.777351             -21.152797               1.000000
 MO|     26              -0.770559             -20.967985               1.000000
 MO|     27              -0.770546             -20.967633               1.000000
 MO|     28              -0.769602             -20.941938               1.000000
 MO|     29              -0.768363             -20.908228               1.000000
 MO|     30              -0.768349             -20.907850               1.000000
 MO|     31              -0.765561             -20.831966               1.000000
 MO|     32              -0.757569             -20.614509               1.000000
 MO|     33              -0.757555             -20.614126               1.000000
 MO|     34              -0.756223             -20.577887               1.000000
 MO|     35              -0.753348             -20.499641               1.000000
 MO|     36              -0.753343             -20.499498               1.000000
 MO|     37              -0.742102             -20.193613               1.000000
 MO|     38              -0.741845             -20.186631               1.000000
 MO|     39              -0.741827             -20.186135               1.000000
 MO|     40              -0.741212             -20.169409               1.000000
 MO|     41              -0.737982             -20.081515               1.000000
 MO|     42              -0.737905             -20.079420               1.000000
 MO|     43              -0.737899             -20.079249               1.000000
 MO|     44              -0.732689             -19.937490               1.000000
 MO|     45              -0.728588             -19.825885               1.000000
 MO|     46              -0.728562             -19.825172               1.000000
 MO|     47              -0.714652             -19.446666               1.000000
 MO|     48              -0.703484             -19.142773               1.000000
 MO|     49              -0.703470             -19.142397               1.000000
 MO|     50              -0.506872             -13.792693               1.000000
 MO|     51              -0.506859             -13.792342               1.000000
 MO|     52              -0.506415             -13.780252               1.000000
 MO|     53              -0.504735             -13.734529               1.000000
 MO|     54              -0.504604             -13.730982               1.000000
 MO|     55              -0.504587             -13.730498               1.000000
 MO|     56              -0.499324             -13.587287               1.000000
 MO|     57              -0.498901             -13.575787               1.000000
 MO|     58              -0.498897             -13.575670               1.000000
 MO|     59              -0.487083             -13.254195               1.000000
 MO|     60              -0.487074             -13.253970               1.000000
 MO|     61              -0.483692             -13.161919               1.000000
 MO|     62              -0.477843             -13.002779               1.000000
 MO|     63              -0.477842             -13.002749               1.000000
 MO|     64              -0.475053             -12.926838               1.000000
 MO|     65              -0.469752             -12.782610               1.000000
 MO|     66              -0.469230             -12.768409               1.000000
 MO|     67              -0.469227             -12.768322               1.000000
 MO|     68              -0.450928             -12.270383               1.000000
 MO|     69              -0.450294             -12.253130               1.000000
 MO|     70              -0.450280             -12.252734               1.000000
 MO|     71              -0.449403             -12.228891               1.000000
 MO|     72              -0.448795             -12.212336               1.000000
 MO|     73              -0.448778             -12.211862               1.000000
 MO|     74              -0.444409             -12.092972               1.000000
 MO|     75              -0.442251             -12.034265               1.000000
 MO|     76              -0.442243             -12.034042               1.000000
 MO|     77              -0.438245             -11.925258               1.000000
 MO|     78              -0.438230             -11.924857               1.000000
 MO|     79              -0.433243             -11.789137               1.000000
 MO|     80              -0.425169             -11.569431               1.000000
 MO|     81              -0.425165             -11.569329               1.000000
 MO|     82              -0.417513             -11.361107               1.000000
 MO|     83              -0.416388             -11.330499               1.000000
 MO|     84              -0.416384             -11.330383               1.000000
 MO|     85              -0.402116             -10.942135               1.000000
 MO|     86              -0.392659             -10.684801               1.000000
 MO|     87              -0.391823             -10.662040               1.000000
 MO|     88              -0.391799             -10.661395               1.000000
 MO|     89              -0.388931             -10.583345               1.000000
 MO|     90              -0.388920             -10.583043               1.000000
 MO|     91              -0.377410             -10.269859               1.000000
 MO|     92              -0.366328              -9.968291               1.000000
 MO|     93              -0.366144              -9.963278               1.000000
 MO|     94              -0.366134              -9.963000               1.000000
 MO|     95              -0.364821              -9.927277               1.000000
 MO|     96              -0.364817              -9.927169               1.000000
 MO|     97              -0.364227              -9.911114               1.000000
 MO|     98              -0.361441              -9.835308               1.000000
 MO|     99              -0.351047              -9.552487               1.000000
 MO|    100              -0.350818              -9.546241               1.000000
 MO|    101              -0.350811              -9.546062               1.000000
 MO|    102              -0.350456              -9.536391               1.000000
 MO|    103              -0.350448              -9.536183               1.000000
 MO|    104              -0.350064              -9.525731               1.000000
 MO|    105              -0.347554              -9.457414               1.000000
 MO|    106              -0.346738              -9.435217               1.000000
 MO|    107              -0.345909              -9.412667               1.000000
 MO|    108              -0.345439              -9.399866               1.000000
 MO|    109              -0.345426              -9.399520               1.000000
 MO|    110              -0.345263              -9.395085               1.000000
 MO|    111              -0.345246              -9.394627               1.000000
 MO|    112              -0.343885              -9.357592               1.000000
 MO|    113              -0.343878              -9.357388               1.000000
 MO|    114              -0.343397              -9.344298               1.000000
 MO|    115              -0.341975              -9.305618               1.000000
 MO|    116              -0.341962              -9.305247               1.000000
 MO|    117              -0.338442              -9.209467               1.000000
 MO|    118              -0.338435              -9.209293               1.000000
 MO|    119              -0.332342              -9.043495               1.000000
 MO|    120              -0.332324              -9.042990               1.000000
 MO|    121              -0.324744              -8.836727               1.000000
 MO|    122              -0.323667              -8.807433               1.000000
 MO|    123              -0.323512              -8.803207               1.000000
 MO|    124              -0.323509              -8.803119               1.000000
 MO|    125              -0.312872              -8.513687               1.000000
 MO|    126              -0.306227              -8.332862               1.000000
 MO|    127              -0.306218              -8.332610               1.000000
 MO|    128              -0.301437              -8.202517               1.000000
 MO|    129              -0.301209              -8.196315               1.000000
 MO|    130              -0.301195              -8.195941               1.000000
 MO|    131              -0.300271              -8.170777               1.000000
 MO|    132              -0.300252              -8.170275               1.000000
 MO|    133              -0.299402              -8.147130               1.000000
 MO|    134              -0.296670              -8.072793               1.000000
 MO|    135              -0.296115              -8.057700               1.000000
 MO|    136              -0.295515              -8.041362               1.000000
 MO|    137              -0.295511              -8.041264               1.000000
 MO|    138              -0.292633              -7.962958               1.000000
 MO|    139              -0.292620              -7.962594               1.000000
 MO|    140              -0.287226              -7.815804               1.000000
 MO|    141              -0.285758              -7.775876               1.000000
 MO|    142              -0.285756              -7.775814               1.000000
 MO|    143              -0.283375              -7.711032               1.000000
 MO|    144              -0.281689              -7.665154               1.000000
 MO|    145              -0.280676              -7.637573               1.000000
 MO|    146              -0.280248              -7.625936               1.000000
 MO|    147              -0.280224              -7.625274               1.000000
 MO|    148              -0.276454              -7.522702               1.000000
 MO|    149              -0.276425              -7.521895               1.000000
 MO|    150              -0.275374              -7.493319               1.000000
 MO|    151              -0.275311              -7.491596               1.000000
 MO|    152              -0.275301              -7.491320               1.000000
 MO|    153              -0.273267              -7.435984               1.000000
 MO|    154              -0.273250              -7.435523               1.000000
 MO|    155              -0.261409              -7.113293               1.000000
 MO|    156              -0.253376              -6.894715               1.000000
 MO|    157              -0.253362              -6.894341               1.000000
 MO|    158              -0.243580              -6.628161               1.000000
 MO|    159              -0.240246              -6.537438               1.000000
 MO|    160              -0.240238              -6.537206               1.000000
 MO|    161              -0.236465              -6.434530               1.000000
 MO|    162              -0.232897              -6.337444               1.000000
 MO|    163              -0.232627              -6.330107               1.000000
 MO|    164              -0.232616              -6.329815               1.000000
 MO|    165              -0.232226              -6.319201               1.000000
 MO|    166              -0.232210              -6.318744               1.000000
 MO|    167              -0.232150              -6.317128               1.000000
 MO|    168              -0.224487              -6.108596               1.000000
 MO|    169              -0.224472              -6.108202               1.000000
 MO|    170              -0.224154              -6.099530               1.000000
 MO|    171              -0.222488              -6.054206               1.000000
 MO|    172              -0.222473              -6.053793               1.000000
 MO|    173              -0.220916              -6.011437               1.000000
 MO|    174              -0.220831              -6.009115               1.000000
 MO|    175              -0.220827              -6.009018               1.000000
 MO|    176              -0.215888              -5.874598               1.000000
 MO|    177              -0.204940              -5.576706               1.000000
 MO|    178              -0.204939              -5.576678               1.000000
 MO|    179              -0.204781              -5.572365               1.000000
 MO|    180              -0.200628              -5.459367               1.000000
 MO|    181              -0.200626              -5.459314               1.000000
 MO|    182              -0.189854              -5.166200               1.000000
 MO|    183              -0.179415              -4.882120               1.000000
 MO|    184              -0.179400              -4.881722               1.000000
 MO|    185              -0.179236              -4.877263               1.000000
 MO|    186              -0.174812              -4.756885               1.000000
 MO|    187              -0.174528              -4.749153               1.000000
 MO|    188              -0.174520              -4.748923               1.000000
 MO|    189              -0.168034              -4.572445               1.000000
 MO|    190              -0.168021              -4.572080               1.000000
 MO|    191              -0.166284              -4.524809               1.000000
 MO|    192              -0.147151              -4.004183               1.000000
 MO|    193              -0.147142              -4.003949               1.000000
 MO|    194              -0.145440              -3.957621               1.000000
 MO|    195              -0.145389              -3.956232               1.000000
 MO|    196              -0.141344              -3.846163               1.000000
 MO|    197               0.066179               1.800818               0.000000
 MO|    198               0.066471               1.808758               0.000000
 MO|    199               0.066819               1.818240               0.000000
 MO|    200               0.066823               1.818353               0.000000
 MO|    201               0.067673               1.841472               0.000000
 MO|    202               0.067674               1.841514               0.000000
 MO|    203               0.073219               1.992385               0.000000
 MO|    204               0.073222               1.992472               0.000000
 MO|    205               0.076220               2.074063               0.000000
 MO|    206               0.076227               2.074230               0.000000
 MO| Sum:                                                             196.000000
 MO| E(Fermi):            0.000000 a.u.          0.000000 eV
 MO| Band gap:            0.207523 a.u.          5.646981 eV


 MO| EIGENVALUES AND OCCUPATION NUMBERS AFTER SCF STEP 0
 MO|
 MO|  Index      Eigenvalue [a.u.]        Eigenvalue [eV]             Occupation
 MO|      1              -0.872863             -23.751820               1.000000
 MO|      2              -0.861139             -23.432795               1.000000
 MO|      3              -0.858887             -23.371505               1.000000
 MO|      4              -0.858869             -23.371001               1.000000
 MO|      5              -0.852193             -23.189338               1.000000
[...]
     69       N      2       5.000    2.706   2.705            0.000     -0.411
     70       N      2       5.000    2.705   2.705            0.000     -0.410
     71       N      2       5.000    2.705   2.705            0.001     -0.410
     72       N      2       5.000    2.710   2.696            0.014     -0.406
     73       N      2       5.000    2.722   2.661            0.061     -0.382
     74       N      2       5.000    2.947   2.506            0.441     -0.453
     75       N      2       5.000    2.704   2.696            0.008     -0.401
     76       N      2       5.000    2.706   2.705            0.000     -0.411
     77       N      2       5.000    2.706   2.705            0.001     -0.410
     78       N      2       5.000    2.705   2.705            0.000     -0.410
     79       N      2       5.000    2.705   2.705           -0.000     -0.410
     80       N      2       5.000    2.719   2.691            0.028     -0.410
     81       N      2       5.000    3.009   2.324            0.685     -0.334
     82       N      2       5.000    2.947   2.506            0.441     -0.453
     83       N      2       5.000    2.715   2.697            0.018     -0.411
     84       N      2       5.000    2.705   2.705            0.000     -0.410
     85       N      2       5.000    2.705   2.705            0.000     -0.410
     86       N      2       5.000    2.705   2.705            0.001     -0.410
     87       N      2       5.000    2.708   2.700            0.008     -0.408
     88       N      2       5.000    2.719   2.691            0.028     -0.410
     89       N      2       5.000    2.722   2.661            0.061     -0.382
     90       N      2       5.000    2.716   2.695            0.021     -0.412
     91       N      2       5.000    2.706   2.704            0.002     -0.410
     92       N      2       5.000    2.705   2.705            0.000     -0.410
     93       N      2       5.000    2.705   2.705            0.000     -0.410
     94       N      2       5.000    2.705   2.705            0.001     -0.410
     95       N      2       5.000    2.705   2.705           -0.000     -0.411
     96       N      2       5.000    2.710   2.696            0.014     -0.406
     97       N      2       5.000    2.706   2.704            0.002     -0.411

  Total Charge                                                           -0.976
 !-----------------------------------------------------------------------------!

 ENERGY| Total FORCE_EVAL ( QS ) energy [a.u.]:             -630.128120947392404

 -------------------------------------------------------------------------------
 -                                                                             -
 -                                DBCSR STATISTICS                             -
 -                                                                             -
 -------------------------------------------------------------------------------
 COUNTER                                    TOTAL       BLAS       SMM       ACC
 flops    13 x    13 x    12            906073896       0.0%    100.0%      0.0%
 flops    13 x    13 x    14           1057086212       0.0%    100.0%      0.0%
 flops    17 x    17 x    12           1615373592       0.0%    100.0%      0.0%
 flops    17 x    17 x    14           1884602524       0.0%    100.0%      0.0%
 flops    17 x    12 x    17           3132519552       0.0%    100.0%      0.0%
 flops    17 x    14 x    17           3654606144       0.0%    100.0%      0.0%
 flops    13 x    13 x    32          28994364672       0.0%    100.0%      0.0%
 flops    17 x    17 x    32          51691954944       0.0%    100.0%      0.0%
 flops    17 x    32 x    17         100240625664       0.0%    100.0%      0.0%
 flops inhomo. stacks                           0       0.0%      0.0%      0.0%
 flops total                       193.177207E+09       0.0%    100.0%      0.0%
 flops max/rank                      1.368771E+09       0.0%    100.0%      0.0%
 matmuls inhomo. stacks                         0       0.0%      0.0%      0.0%
 matmuls total                           12710880       0.0%    100.0%      0.0%
 number of processed stacks               1548288       0.0%    100.0%      0.0%
 average stack size                                     0.0       8.2       0.0
 marketing flops                   269.560021E+09
 -------------------------------------------------------------------------------
 # multiplications                            288
 max memory usage/rank             861.339648E+06
 # max total images/rank                        3
 # max 3D layers                                1
 # MPI messages exchanged                20348928
 MPI messages size (bytes):
  total size                       130.530787E+09
  min size                           0.000000E+00
  max size                          48.552000E+03
  average size                       6.414627E+03
 MPI breakdown and total messages size (bytes):
             size <=      128            14421504                        0
       128 < size <=     8192              638115               3578640000
      8192 < size <=    32768             5217117             123916508672
     32768 < size <=   131072               72192               3035637504
    131072 < size <=  4194304                   0                        0
   4194304 < size <= 16777216                   0                        0
  16777216 < size                               0                        0
 -------------------------------------------------------------------------------

 *** WARNING in dbcsr_mm.F:294 :: Using a non-square number of MPI ranks ***
 *** might lead to poor performance. Used ranks: 768 Suggested: 784 1521 ***

 -------------------------------------------------------------------------------
 -                                                                             -
 -                      DBCSR MESSAGE PASSING PERFORMANCE                      -
 -                                                                             -
 -------------------------------------------------------------------------------
 ROUTINE             CALLS      AVE VOLUME [Bytes]
 MP_Bcast               10                     12.
 MP_Allreduce         1567                      8.
 MP_Alltoall          9142                1384930.
 MP_ISend            55296                   3828.
 MP_IRecv            55296                   3667.
 -------------------------------------------------------------------------------

 -------------------------------------------------------------------------------
 -                                                                             -
 -                                GRID STATISTICS                              -
 -                                                                             -
 -------------------------------------------------------------------------------
 LP    KERNEL             BACKEND                              COUNT     PERCENT
 4     collocate general  REF                               20520634      32.97%
 4     integrate general  REF                               20098046      32.29%
 1     collocate general  REF                                3972816       6.38%
 1     integrate general  REF                                3972816       6.38%
 2     collocate general  REF                                3331266       5.35%
 2     integrate general  REF                                3331266       5.35%
 0     collocate general  REF                                2201200       3.54%
 0     integrate general  REF                                2201200       3.54%
 3     collocate general  REF                                1310172       2.10%
 3     integrate general  REF                                1310172       2.10%
 -------------------------------------------------------------------------------

 MEMORY| Estimated peak process memory [MiB]                                 822

 -------------------------------------------------------------------------------
 ----                             MULTIGRID INFO                            ----
 -------------------------------------------------------------------------------
 count for grid        1:       12377324          cutoff [a.u.]          250.00
 count for grid        2:        6493146          cutoff [a.u.]           83.33
 count for grid        3:        2647533          cutoff [a.u.]           27.78
 count for grid        4:        1482109          cutoff [a.u.]            9.26
 total gridlevel count  :       23000112

 -------------------------------------------------------------------------------
 -                                                                             -
 -                         MESSAGE PASSING PERFORMANCE                         -
 -                                                                             -
 -------------------------------------------------------------------------------

 ROUTINE             CALLS      AVE VOLUME [Bytes]
 MP_Group                4
 MP_Bcast              894                4341413.
 MP_Allreduce         1681                   1392.
 MP_Sync              2888
 MP_Alltoall          5403              291826470.
 MP_ISendRecv      1015508                  12674.
 MP_Wait           1029426
 MP_comm_split          95
 MP_ISend            62794                 117146.
 MP_IRecv            63260                 116290.
 MP_Recv               243                  65960.
 -------------------------------------------------------------------------------


 -------------------------------------------------------------------------------
 -                                                                             -
 -                           R E F E R E N C E S                               -
 -                                                                             -
 -------------------------------------------------------------------------------
 
 CP2K version 8.2, the CP2K developers group (2021).
 CP2K is freely available from https://www.cp2k.org/ .

 Kuehne,Thomas D.; Iannuzzi,Marcella; Del Ben,Mauro;
 Rybkin,Vladimir V.; Seewald,Patrick; Stein,Frederick; Laino,Teodoro;
 Khaliullin,Rustam Z.; Schuett,Ole; Schiffmann,Florian; Golze,Dorothea;
 Wilhelm,Jan; Chulkov,Sergey; Bani-Hashemian,Mohammad Hossein;
 Weber,Valery; Borstnik,Urban; Taillefumier,Mathieu;
 Jakobovits,Alice Shoshana; Lazzaro,Alfio; Pabst,Hans; Mueller,Tiziano;
 Schade,Robert; Guidon,Manuel; Andermatt,Samuel; Holmberg,Nico;
 Schenter,Gregory K.; Hehn,Anna; Bussy,Augustin; Belleflamme,Fabian;
 Tabacchi,Gloria; Gloess,Andreas; Lass,Michael; Bethune,Iain;
 Mundy,Christopher J.; Plessl,Christian; Watkins,Matt;
 VandeVondele,Joost; Krack,Matthias; Hutter,Juerg. 
 The Journal of Chemical Physics, 152 (19), (2020). 
 CP2K: An electronic structure and molecular dynamics software package -
 Quickstep: Efficient and accurate electronic structure calculations.
 https://doi.org/10.1063/5.0007045

 Schuett, Ole; Messmer, Peter; Hutter, Juerg; VandeVondele, Joost. 
 Electronic Structure Calculations on Graphics Processing Units, John
 Wiley & Sons, Ltd, 173-190 (2016). 
 GPU-Accelerated Sparse Matrix-Matrix Multiplication for
 Linear Scaling Density Functional Theory.
 https://doi.org/10.1002/9781118670712.ch8

 Heinecke, A; Henry, G; Hutchinson, M; Pabst, H. 
 Proceedings of Intl. Supercomputing Conference, 981-991 (2016). 
 LIBXSMM: Accelerating Small Matrix Multiplications
 by Runtime Code Generation.
 https://doi.org/10.1109/SC.2016.83

 Borstnik, U; VandeVondele, J; Weber, V; Hutter, J. 
 PARALLEL COMPUTING, 40 (5-6), 47-58 (2014). 
 Sparse matrix multiplication: The distributed block-compressed sparse
 row library.
 https://doi.org/10.1016/j.parco.2014.03.012

 Hutter, J; Iannuzzi, M; Schiffmann, F; VandeVondele, J. 
 WIREs Comput Mol Sci., 4 (1), 15-25 (2014). 
 CP2K: atomistic simulations of condensed matter systems.
 https://doi.org/10.1002/wcms.1159

 Guidon, M; Hutter, J; VandeVondele, J. 
 JOURNAL OF CHEMICAL THEORY AND COMPUTATION, 6 (8), 2348-2364 (2010). 
 Auxiliary Density Matrix Methods for Hartree-Fock Exchange Calculations.
 https://doi.org/10.1021/ct1002225

 Guidon, M; Hutter, J; VandeVondele, J. 
 JOURNAL OF CHEMICAL THEORY AND COMPUTATION, 5 (11), 3010-3021 (2009). 
 Robust Periodic Hartree-Fock Exchange for Large-Scale Simulations Using
 Gaussian Basis Sets.
 https://doi.org/10.1021/ct900494g

 Gilbert, ATB; Besley, NA; Gill, PMW. 
 THE JOURNAL OF PHYSICAL CHEMISTRY A, 112, 13164-13171 (2008). 
 Self-consistent field calculations of excited states
 using the maximum overlap method (MOM).
 https://doi.org/10.1021/jp801738f

 Guidon, M; Schiffmann, F; Hutter, J; VandeVondele, J. 
 JOURNAL OF CHEMICAL PHYSICS, 128 (21), 214104 (2008). 
 Ab initio molecular dynamics using hybrid density functionals.
 https://doi.org/10.1063/1.2931945

 VandeVondele, J; Hutter, J. 
 JOURNAL OF CHEMICAL PHYSICS, 127 (11), 114105 (2007). 
 Gaussian basis sets for accurate calculations on molecular systems in
 gas and condensed phases.
 https://doi.org/10.1063/1.2770708

 Krack, M. 
 THEORETICAL CHEMISTRY ACCOUNTS, 114 (1-3), 145-152 (2005). 
 Pseudopotentials for H to Kr optimized for gradient-corrected
 exchange-correlation functionals.
 https://doi.org/10.1007/s00214-005-0655-y

 VandeVondele, J; Krack, M; Mohamed, F; Parrinello, M; Chassaing, T;
 Hutter, J. COMPUTER PHYSICS COMMUNICATIONS, 167 (2), 103-128 (2005). 
 QUICKSTEP: Fast and accurate density functional calculations using a
 mixed Gaussian and plane waves approach.
 https://doi.org/10.1016/j.cpc.2004.12.014

 Frigo, M; Johnson, SG. 
 PROCEEDINGS OF THE IEEE, 93 (2), 216-231 (2005). 
 The design and implementation of FFTW3.
 https://doi.org/10.1109/JPROC.2004.840301

 Heyd, J; Scuseria, GE. 
 JOURNAL OF CHEMICAL PHYSICS, 120 (16), 7274-7280 (2004). 
 Assessment and validation of a screened Coulomb hybrid density
 functional.
 https://doi.org/10.1063/1.1668634

 Hartwigsen, C; Goedecker, S; Hutter, J. 
 PHYSICAL REVIEW B, 58 (7), 3641-3662 (1998). 
 Relativistic separable dual-space Gaussian pseudopotentials from H to Rn.
 https://doi.org/10.1103/PhysRevB.58.3641

 Lippert, G; Hutter, J; Parrinello, M. 
 MOLECULAR PHYSICS, 92 (3), 477-487 (1997). 
 A hybrid Gaussian and plane wave density functional scheme.
 https://doi.org/10.1080/002689797170220

 Perdew, JP; Burke, K; Ernzerhof, M. 
 PHYSICAL REVIEW LETTERS, 77 (18), 3865-3868 (1996). 
 Generalized gradient approximation made simple.
 https://doi.org/10.1103/PhysRevLett.77.3865

 Goedecker, S; Teter, M; Hutter, J. 
 PHYSICAL REVIEW B, 54 (3), 1703-1710 (1996). 
 Separable dual-space Gaussian pseudopotentials.
 https://doi.org/10.1103/PhysRevB.54.1703


 -------------------------------------------------------------------------------
 -                                                                             -
 -                                T I M I N G                                  -
 -                                                                             -
 -------------------------------------------------------------------------------
 SUBROUTINE                       CALLS  ASD         SELF TIME        TOTAL TIME
                                MAXIMUM       AVERAGE  MAXIMUM  AVERAGE  MAXIMUM
 CP2K                                 1  1.0    0.022    0.047  228.458  228.458
 qs_energies                          1  2.0    0.001    0.001  227.700  227.700
 scf_env_do_scf                       1  3.0    0.000    0.000  225.528  225.532
 scf_env_do_scf_inner_loop           47  4.0    0.002    0.002  225.528  225.532
 qs_ks_update_qs_env                 47  5.0    0.000    0.001  167.220  167.222
 rebuild_ks_matrix                   47  6.0    0.000    0.001  167.213  167.215
 qs_ks_build_kohn_sham_matrix        47  7.0    0.006    0.007  167.212  167.215
 rs_pw_transfer                    1516 10.2    0.013    0.017   70.718   75.472
 sum_up_and_integrate                47  8.0    0.023    0.026   68.102   68.106
 integrate_v_rspace                 188  9.0    0.003    0.004   68.070   68.079
 hfx_ks_matrix                       47  8.0    0.002    0.002   65.211   65.215
 integrate_four_center               47  9.0    0.345    0.373   65.198   65.199
 integrate_four_center_main          47 10.0    0.010    0.012   56.885   58.997
 integrate_four_center_bin         3055 11.0   56.875   58.987   56.875   58.987
 calculate_rho_elec                 190  7.5    0.023    0.025   57.885   57.900
 density_rs2pw                      190  8.5    0.008    0.009   39.861   44.460
 grid_collocate_task_list           190  8.5   17.776   38.732   17.776   38.732
 qs_rho_update_rho                   48  5.0    0.001    0.001   35.444   35.445
 potential_pw2rs                    188 10.0    0.010    0.012   33.921   34.683
 mp_waitany                       10700 12.2   26.353   34.389   26.353   34.389
 rs_pw_transfer_RS2PW_250           192 10.5    5.587    7.435   28.870   33.603
 grid_integrate_task_list           188 10.0   11.735   31.153   11.735   31.153
 mp_alltoall_d11v                  4374 11.1   22.916   27.075   22.916   27.075
 rs_gather_matrices                 188 10.0    0.006    0.009   22.411   26.644
 qs_scf_new_mos                      47  5.0    0.000    0.000   23.775   23.785
 do_mom_diag                         47  6.0    0.005    0.005   23.775   23.785
 rs_pw_transfer_PW2RS_250           190 12.0    8.822    8.979   23.555   23.718
 admm_mo_calc_rho_aux                47  8.0    0.001    0.001   23.575   23.580
 eigensolver_symm                    94  7.0    0.005    0.006   20.355   20.358
 cp_fm_syevd                         95  8.0    0.001    0.002   18.196   18.235
 cp_fm_redistribute_end              95  9.0   17.179   17.903   17.263   17.909
 cp_fm_syevd_base                    95  9.0    0.635   17.455    0.635   17.455
 mp_sync                           2888 14.4    5.783   15.115    5.783   15.115
 rs_grid_zero                       192 12.9   11.285   11.613   11.285   11.613
 mp_waitall_1                   1099168 12.2    9.548   10.991    9.548   10.991
 pw_transfer                       3160 10.2    0.181    0.217    8.265    9.134
 fft_wrap_pw1pw2                   3066 11.2    0.016    0.019    8.077    8.955
 qs_vxc_create                       94  8.0    0.002    0.002    8.156    8.156
 xc_vxc_pw_create                    94  9.0    0.565    0.635    8.155    8.155
 fft_wrap_pw1pw2_250               1932 12.2    0.192    0.227    6.730    7.661
 fft3d_pb                          1932 13.2    0.794    0.912    6.344    7.279
 rs_pw_transfer_RS2PW_90            190 10.5    3.078    3.570    5.789    6.360
 rs_pw_transfer_PW2RS_90            188 12.0    3.562    4.044    5.928    6.291
 mp_alltoall_z22v                  4998 15.2    5.300    6.199    5.300    6.199
 xc_rho_set_and_dset_create          94 10.0    0.054    0.059    4.563    4.867
 mp_isendrecv_dv                1013974 12.1    1.739    4.772    1.739    4.772
 -------------------------------------------------------------------------------

 The number of warnings for this run is : 3
 
 -------------------------------------------------------------------------------
  **** **** ******  **  PROGRAM ENDED AT                 2024-08-28 22:59:35.908
 ***** ** ***  *** **   PROGRAM RAN ON                              i01r01c01s01
 **    ****   ******    PROGRAM RAN BY                                   di76zil
 ***** **    ** ** **   PROGRAM PROCESS ID                                872447
  **** **  *******  **  PROGRAM STOPPED IN /hppfs/work/pn36zo/di76zil/39_hBN/1_7
                                           x7_neg_charged_vacancy/24_HSE06_mult_
                                           3_admm_dzvp_filter_1e-6/2_MOM_excited
                                           _state
