 DBCSR| CPU Multiplication driver                                           XSMM
 DBCSR| Multrec recursion limit                                              512
 DBCSR| Multiplication stack size                                           1000
 DBCSR| Maximum elements for images                                    UNLIMITED
 DBCSR| Multiplicative factor virtual images                                   1
 DBCSR| Use multiplication densification                                       T
 DBCSR| Multiplication size stacks                                             3
 DBCSR| Use memory pool for CPU allocation                                     F
 DBCSR| Number of 3D layers                                               SINGLE
 DBCSR| Use MPI memory allocation                                              F
 DBCSR| Use RMA algorithm                                                      F
 DBCSR| Use Communication thread                                               T
 DBCSR| Communication thread load                                             87
 DBCSR| MPI: My node id                                                        0
 DBCSR| MPI: Number of nodes                                                 768
 DBCSR| OMP: Current number of threads                                         1
 DBCSR| OMP: Max number of threads                                             1
 DBCSR| Split modifier for TAS multiplication algorithm                  1.0E+00


  **** **** ******  **  PROGRAM STARTED AT               2024-08-29 22:10:29.327
 ***** ** ***  *** **   PROGRAM STARTED ON                          i01r01c01s01
 **    ****   ******    PROGRAM STARTED BY                               di76zil
 ***** **    ** ** **   PROGRAM PROCESS ID                               1239704
  **** **  *******  **  PROGRAM STARTED IN /hppfs/work/pn36zo/di76zil/39_hBN/1_7
                                           x7_neg_charged_vacancy/52_geoopt_exci
                                           ted_state

 CP2K| version string:                                          CP2K version 8.2
 CP2K| source code revision number:                                  git:310b7ab
 CP2K| cp2kflags: omp libint fftw3 libxc parallel mpi3 scalapack xsmm plumed2 mk
 CP2K|            l
 CP2K| is freely available from                            https://www.cp2k.org/
 CP2K| Program compiled at                         Sat May 21 03:58:26 CEST 2022
 CP2K| Program compiled on                                               login03
 CP2K| Program compiled for                    linux-sles15-skylake_avx512-intel
 CP2K| Data directory path    /dss/lrzsys/sys/spack/release/22.2.1/opt/skylake_a
 CP2K| Input file name                                                   HSE.inp
 
 GLOBAL| Force Environment number                                              1
 GLOBAL| Basis set file name                                        BASIS_MOLOPT
 GLOBAL| Potential file name                                      GTH_POTENTIALS
 GLOBAL| MM Potential file name                                     MM_POTENTIAL
 GLOBAL| Coordinate file name                                          struc.cif
 GLOBAL| Method name                                                        CP2K
 GLOBAL| Project name                                                hBN_vacancy
 GLOBAL| Run type                                                         ENERGY
 GLOBAL| FFT library                                                       FFTW3
 GLOBAL| Diagonalization library                                       ScaLAPACK
 GLOBAL| Orthonormality check for eigenvectors                          DISABLED
 GLOBAL| Matrix multiplication library                                    SCALAP
 GLOBAL| All-to-all communication in single precision                          F
 GLOBAL| FFTs using library dependent lengths                                  F
 GLOBAL| Grid backend                                                       AUTO
 GLOBAL| Global print level                                               MEDIUM
 GLOBAL| MPI I/O enabled                                                       T
 GLOBAL| Total number of message passing processes                           768
 GLOBAL| Number of threads for this process                                    1
 GLOBAL| This output is from process                                           0
 GLOBAL| CPU model name             Intel(R) Xeon(R) Platinum 8174 CPU @ 3.10GHz
 GLOBAL| CPUID                                                              1003

 MEMORY| system memory details [Kb]
 MEMORY|                        rank 0           min           max       average
 MEMORY| MemTotal             98436660      98436660      98436708      98436671
 MEMORY| MemFree              77067404      75843580      77244944      76914060
 MEMORY| Buffers                     0             0             0             0
 MEMORY| Cached                3207912       3207908       3367848       3324976
 MEMORY| Slab                  1033128       1033128       1254780       1125903
 MEMORY| SReclaimable           227856        227856        285900        252668
 MEMORY| MemLikelyFree        80503172      79456728      80837704      80491705


 *** Fundamental physical constants (SI units) ***

 *** Literature: B. J. Mohr and B. N. Taylor,
 ***             CODATA recommended values of the fundamental physical
 ***             constants: 2006, Web Version 5.1
 ***             http://physics.nist.gov/constants

 Speed of light in vacuum [m/s]                             2.99792458000000E+08
 Magnetic constant or permeability of vacuum [N/A**2]       1.25663706143592E-06
 Electric constant or permittivity of vacuum [F/m]          8.85418781762039E-12
 Planck constant (h) [J*s]                                  6.62606896000000E-34
 Planck constant (h-bar) [J*s]                              1.05457162825177E-34
 Elementary charge [C]                                      1.60217648700000E-19
 Electron mass [kg]                                         9.10938215000000E-31
 Electron g factor [ ]                                     -2.00231930436220E+00
 Proton mass [kg]                                           1.67262163700000E-27
 Fine-structure constant                                    7.29735253760000E-03
 Rydberg constant [1/m]                                     1.09737315685270E+07
 Avogadro constant [1/mol]                                  6.02214179000000E+23
 Boltzmann constant [J/K]                                   1.38065040000000E-23
 Atomic mass unit [kg]                                      1.66053878200000E-27
 Bohr radius [m]                                            5.29177208590000E-11

 *** Conversion factors ***

 [u] -> [a.u.]                                              1.82288848426455E+03
 [Angstrom] -> [Bohr] = [a.u.]                              1.88972613288564E+00
 [a.u.] = [Bohr] -> [Angstrom]                              5.29177208590000E-01
 [a.u.] -> [s]                                              2.41888432650478E-17
 [a.u.] -> [fs]                                             2.41888432650478E-02
 [a.u.] -> [J]                                              4.35974393937059E-18
 [a.u.] -> [N]                                              8.23872205491840E-08
 [a.u.] -> [K]                                              3.15774647902944E+05
 [a.u.] -> [kJ/mol]                                         2.62549961709828E+03
 [a.u.] -> [kcal/mol]                                       6.27509468713739E+02
 [a.u.] -> [Pa]                                             2.94210107994716E+13
 [a.u.] -> [bar]                                            2.94210107994716E+08
 [a.u.] -> [atm]                                            2.90362800883016E+08
 [a.u.] -> [eV]                                             2.72113838565563E+01
 [a.u.] -> [Hz]                                             6.57968392072181E+15
 [a.u.] -> [1/cm] (wave numbers)                            2.19474631370540E+05
 [a.u./Bohr**2] -> [1/cm]                                   5.14048714338585E+03
 

 CELL_TOP| Volume [angstrom^3]:                                      3990.999418
 CELL_TOP| Vector a [angstrom    17.528     0.000     0.000   |a| =    17.527900
 CELL_TOP| Vector b [angstrom    -8.764    15.180     0.000   |b| =    17.527900
 CELL_TOP| Vector c [angstrom     0.000     0.000    15.000   |c| =    15.000000
 CELL_TOP| Angle (b,c), alpha [degree]:                                90.000000
 CELL_TOP| Angle (a,c), beta  [degree]:                                90.000000
 CELL_TOP| Angle (a,b), gamma [degree]:                               120.000000
 CELL_TOP| Numerically orthorhombic:                                          NO

 CELL_CIF| Volume [angstrom^3]:                                      3990.999418
 CELL_CIF| Vector a [angstrom    17.528     0.000     0.000   |a| =    17.527900
 CELL_CIF| Vector b [angstrom    -8.764    15.180     0.000   |b| =    17.527900
 CELL_CIF| Vector c [angstrom     0.000     0.000    15.000   |c| =    15.000000
 CELL_CIF| Angle (b,c), alpha [degree]:                                90.000000
 CELL_CIF| Angle (a,c), beta  [degree]:                                90.000000
 CELL_CIF| Angle (a,b), gamma [degree]:                               120.000000
 CELL_CIF| Numerically orthorhombic:                                          NO

 *** WARNING in topology_cif.F:260 :: The fields                        ***
 *** (_symmetry_equiv_pos_as_xyz) or (_space_group_symop_operation_xyz) ***
 *** were not found in CIF file!                                        ***

 
 GENERATE|  Preliminary Number of Bonds generated:                             0
 GENERATE|  Achieved consistency in connectivity generation.

 CELL| Volume [angstrom^3]:                                          3990.999418
 CELL| Vector a [angstrom]:      17.528     0.000     0.000   |a| =    17.527900
 CELL| Vector b [angstrom]:      -8.764    15.180     0.000   |b| =    17.527900
 CELL| Vector c [angstrom]:       0.000     0.000    15.000   |c| =    15.000000
 CELL| Angle (b,c), alpha [degree]:                                    90.000000
 CELL| Angle (a,c), beta  [degree]:                                    90.000000
 CELL| Angle (a,b), gamma [degree]:                                   120.000000
 CELL| Numerically orthorhombic:                                              NO

 CELL_REF| Volume [angstrom^3]:                                      3990.999418
 CELL_REF| Vector a [angstrom    17.528     0.000     0.000   |a| =    17.527900
 CELL_REF| Vector b [angstrom    -8.764    15.180     0.000   |b| =    17.527900
 CELL_REF| Vector c [angstrom     0.000     0.000    15.000   |c| =    15.000000
 CELL_REF| Angle (b,c), alpha [degree]:                                90.000000
 CELL_REF| Angle (a,c), beta  [degree]:                                90.000000
 CELL_REF| Angle (a,b), gamma [degree]:                               120.000000
 CELL_REF| Numerically orthorhombic:                                          NO

 *******************************************************************************
 *******************************************************************************
 **                                                                           **
 **     #####                         ##              ##                      **
 **    ##   ##            ##          ##              ##                      **
 **   ##     ##                       ##            ######                    **
 **   ##     ##  ##   ##  ##   #####  ##  ##   ####   ##    #####    #####    **
 **   ##     ##  ##   ##  ##  ##      ## ##   ##      ##   ##   ##  ##   ##   **
 **   ##  ## ##  ##   ##  ##  ##      ####     ###    ##   ######   ######    **
 **    ##  ###   ##   ##  ##  ##      ## ##      ##   ##   ##       ##        **
 **     #######   #####   ##   #####  ##  ##  ####    ##    #####   ##        **
 **           ##                                                    ##        **
 **                                                                           **
 **                                                ... make the atoms dance   **
 **                                                                           **
 **            Copyright (C) by CP2K developers group (2000-2021)             **
 **                      J. Chem. Phys. 152, 194103 (2020)                    **
 **                                                                           **
 *******************************************************************************

 DFT| Spin unrestricted (spin-polarized) Kohn-Sham calculation               UKS
 DFT| Multiplicity                                                             3
 DFT| Number of spin states                                                    2
 DFT| Charge                                                                  -1
 DFT| Self-interaction correction (SIC)                                       NO
 DFT| Cutoffs: density                                              1.000000E-10
 DFT|          gradient                                             1.000000E-10
 DFT|          tau                                                  1.000000E-10
 DFT|          cutoff_smoothing_range                               0.000000E+00
 DFT| XC density smoothing                                                  NONE
 DFT| XC derivatives                                                          PW
 FUNCTIONAL| ROUTINE=NEW
 FUNCTIONAL| PBE:
 FUNCTIONAL| J.P.Perdew, K.Burke, M.Ernzerhof, Phys. Rev. Letter, vol. 77, n 18,
 FUNCTIONAL|  pp. 3865-3868, (1996)sx=0.000sc=1.000{spin polarized}             
 FUNCTIONAL| XWPBE:
 FUNCTIONAL| Jochen Heyd and Gustavo E. Scuseria, J. Chem. Phys., 120, 7274 {LSD
 FUNCTIONAL|  version}                                                          

 QS| Method:                                                                 GPW
 QS| Density plane wave grid type                        NON-SPHERICAL FULLSPACE
 QS| Number of grid levels:                                                    4
 QS| Density cutoff [a.u.]:                                                250.0
 QS| Multi grid cutoff [a.u.]: 1) grid level                               250.0
 QS|                           2) grid level                                83.3
 QS|                           3) grid level                                27.8
 QS|                           4) grid level                                 9.3
 QS| Grid level progression factor:                                          3.0
 QS| Relative density cutoff [a.u.]:                                        50.0
 QS| Interaction thresholds: eps_pgf_orb:                                1.0E-12
 QS|                         eps_filter_matrix:                          0.0E+00
 QS|                         eps_core_charge:                            1.0E-14
 QS|                         eps_rho_gspace:                             1.0E-12
 QS|                         eps_rho_rspace:                             1.0E-12
 QS|                         eps_gvg_rspace:                             1.0E-06
 QS|                         eps_ppl:                                    1.0E-02
 QS|                         eps_ppnl:                                   1.0E-08


 ATOMIC KIND INFORMATION

  1. Atomic kind: B                                     Number of atoms:      48

     Orbital Basis Set                                    TZVP-MOLOPT-PBE-GTH-q3

       Number of orbital shell sets:                                           1
       Number of orbital shells:                                               7
       Number of primitive Cartesian functions:                                5
       Number of Cartesian basis functions:                                   18
       Number of spherical basis functions:                                   17
       Norm type:                                                              2

       Normalised Cartesian orbitals:

                        Set   Shell   Orbital            Exponent    Coefficient

                          1       1    2s                3.575233      -0.251277
                                                         1.347699      -0.198106
                                                         0.614553       0.172878
                                                         0.253523       0.151700
                                                         0.085137       0.035450

                          1       2    3s                3.575233       0.549636
                                                         1.347699       0.196373
                                                         0.614553      -0.255207
                                                         0.253523      -0.051628
                                                         0.085137       0.138907

                          1       3    4s                3.575233      -2.548426
                                                         1.347699      -0.015252
                                                         0.614553       0.995642
                                                         0.253523      -0.496980
                                                         0.085137       0.095773

                          1       4    3px               3.575233      -0.379954
                                                         1.347699      -0.232253
                                                         0.614553      -0.197045
                                                         0.253523      -0.107441
                                                         0.085137      -0.025250
                          1       4    3py               3.575233      -0.379954
                                                         1.347699      -0.232253
                                                         0.614553      -0.197045
                                                         0.253523      -0.107441
                                                         0.085137      -0.025250
                          1       4    3pz               3.575233      -0.379954
                                                         1.347699      -0.232253
                                                         0.614553      -0.197045
                                                         0.253523      -0.107441
                                                         0.085137      -0.025250

                          1       5    4px               3.575233       0.795891
                                                         1.347699       0.510277
                                                         0.614553       0.370808
                                                         0.253523       0.096082
                                                         0.085137      -0.053145
                          1       5    4py               3.575233       0.795891
                                                         1.347699       0.510277
                                                         0.614553       0.370808
                                                         0.253523       0.096082
                                                         0.085137      -0.053145
                          1       5    4pz               3.575233       0.795891
                                                         1.347699       0.510277
                                                         0.614553       0.370808
                                                         0.253523       0.096082
                                                         0.085137      -0.053145

                          1       6    5px               3.575233       1.547907
                                                         1.347699       0.913267
                                                         0.614553       0.659546
                                                         0.253523      -0.229482
                                                         0.085137       0.016583
                          1       6    5py               3.575233       1.547907
                                                         1.347699       0.913267
                                                         0.614553       0.659546
                                                         0.253523      -0.229482
                                                         0.085137       0.016583
                          1       6    5pz               3.575233       1.547907
                                                         1.347699       0.913267
                                                         0.614553       0.659546
                                                         0.253523      -0.229482
                                                         0.085137       0.016583

                          1       7    4dx2              3.575233      -0.146757
                                                         1.347699       0.616788
                                                         0.614553       0.145475
                                                         0.253523       0.099150
                                                         0.085137       0.002211
                          1       7    4dxy              3.575233      -0.254191
                                                         1.347699       1.068308
                                                         0.614553       0.251971
                                                         0.253523       0.171733
                                                         0.085137       0.003829
                          1       7    4dxz              3.575233      -0.254191
                                                         1.347699       1.068308
                                                         0.614553       0.251971
                                                         0.253523       0.171733
                                                         0.085137       0.003829
                          1       7    4dy2              3.575233      -0.146757
                                                         1.347699       0.616788
                                                         0.614553       0.145475
                                                         0.253523       0.099150
                                                         0.085137       0.002211
                          1       7    4dyz              3.575233      -0.254191
                                                         1.347699       1.068308
                                                         0.614553       0.251971
                                                         0.253523       0.171733
                                                         0.085137       0.003829
                          1       7    4dz2              3.575233      -0.146757
                                                         1.347699       0.616788
                                                         0.614553       0.145475
                                                         0.253523       0.099150
                                                         0.085137       0.002211

     Auxiliary Fit Basis Set                                         admm-dzp-q3

       Number of orbital shell sets:                                           5
       Number of orbital shells:                                               5
       Number of primitive Cartesian functions:                                7
       Number of Cartesian basis functions:                                   14
       Number of spherical basis functions:                                   13
       Norm type:                                                              2

       Normalised Cartesian orbitals:

                        Set   Shell   Orbital            Exponent    Coefficient

                          1       1    1s                2.724441      -0.774936
                                                         0.381865       0.406364

                          2       1    1s                0.139915       0.163045

                          3       1    1px               2.606438      -1.784494
                                                         0.633501       0.935760
                          3       1    1py               2.606438      -1.784494
                                                         0.633501       0.935760
                          3       1    1pz               2.606438      -1.784494
                                                         0.633501       0.935760

                          4       1    1px               0.153477       0.136928
                          4       1    1py               0.153477       0.136928
                          4       1    1pz               0.153477       0.136928

                          5       1    1dx2              0.343000       0.253031
                          5       1    1dxy              0.343000       0.438263
                          5       1    1dxz              0.343000       0.438263
                          5       1    1dy2              0.343000       0.253031
                          5       1    1dyz              0.343000       0.438263
                          5       1    1dz2              0.343000       0.253031

       Atomic covalent radius [Angstrom]:                                  0.820

       Atomic van der Waals radius [Angstrom]:                             1.920

     GTH Potential information for                                   GTH-PADE-q3

       Description:                       Goedecker-Teter-Hutter pseudopotential
                                           Goedecker et al., PRB 54, 1703 (1996)
                                          Hartwigsen et al., PRB 58, 3641 (1998)
                                                      Krack, TCA 114, 145 (2005)

       Gaussian exponent of the core charge distribution:               2.655410
       Electronic configuration (s p d ...):                               2   1

       Parameters of the local part of the GTH pseudopotential:

                          rloc        C1          C2          C3          C4
                        0.433930   -5.578642    0.804251

       Parameters of the non-local part of the GTH pseudopotential:

                   l      r(l)      h(i,j,l)

                   0    0.373843    6.233928
                   1    0.360393

  2. Atomic kind: N                                     Number of atoms:      49

     Orbital Basis Set                                           TZVP-MOLOPT-GTH

       Number of orbital shell sets:                                           1
       Number of orbital shells:                                               7
       Number of primitive Cartesian functions:                                7
       Number of Cartesian basis functions:                                   18
       Number of spherical basis functions:                                   17
       Norm type:                                                              2

       Normalised Cartesian orbitals:

                        Set   Shell   Orbital            Exponent    Coefficient

                          1       1    2s                9.042730      -0.237404
                                                         3.882225      -0.265910
                                                         1.512880       0.102064
                                                         0.586631       0.295369
                                                         0.222851       0.088647
                                                         0.084583       0.003860
                                                         0.039194       0.000722

                          1       2    3s                9.042730       0.259152
                                                         3.882225       0.251432
                                                         1.512880      -0.043896
                                                         0.586631      -0.328079
                                                         0.222851       0.175857
                                                         0.084583       0.069169
                                                         0.039194       0.004207

                          1       3    4s                9.042730       0.330627
                                                         3.882225       0.738242
                                                         1.512880      -0.570149
                                                         0.586631       0.474918
                                                         0.222851       0.192885
                                                         0.084583      -0.214824
                                                         0.039194       0.031577

                          1       4    3px               9.042730       0.822162
                                                         3.882225       0.990771
                                                         1.512880       0.665657
                                                         0.586631       0.321705
                                                         0.222851       0.063706
                                                         0.084583       0.004155
                                                         0.039194      -0.000005
                          1       4    3py               9.042730       0.822162
                                                         3.882225       0.990771
                                                         1.512880       0.665657
                                                         0.586631       0.321705
                                                         0.222851       0.063706
                                                         0.084583       0.004155
                                                         0.039194      -0.000005
                          1       4    3pz               9.042730       0.822162
                                                         3.882225       0.990771
                                                         1.512880       0.665657
                                                         0.586631       0.321705
                                                         0.222851       0.063706
                                                         0.084583       0.004155
                                                         0.039194      -0.000005

                          1       5    4px               9.042730      -0.251449
                                                         3.882225      -0.215479
                                                         1.512880      -0.200519
                                                         0.586631      -0.125283
                                                         0.222851       0.136219
                                                         0.084583       0.034362
                                                         0.039194       0.000879
                          1       5    4py               9.042730      -0.251449
                                                         3.882225      -0.215479
                                                         1.512880      -0.200519
                                                         0.586631      -0.125283
                                                         0.222851       0.136219
                                                         0.084583       0.034362
                                                         0.039194       0.000879
                          1       5    4pz               9.042730      -0.251449
                                                         3.882225      -0.215479
                                                         1.512880      -0.200519
                                                         0.586631      -0.125283
                                                         0.222851       0.136219
                                                         0.084583       0.034362
                                                         0.039194       0.000879

                          1       6    5px               9.042730      -1.546561
                                                         3.882225       0.742834
                                                         1.512880      -1.783177
                                                         0.586631       0.969458
                                                         0.222851       0.077327
                                                         0.084583      -0.117711
                                                         0.039194       0.027593
                          1       6    5py               9.042730      -1.546561
                                                         3.882225       0.742834
                                                         1.512880      -1.783177
                                                         0.586631       0.969458
                                                         0.222851       0.077327
                                                         0.084583      -0.117711
                                                         0.039194       0.027593
                          1       6    5pz               9.042730      -1.546561
                                                         3.882225       0.742834
                                                         1.512880      -1.783177
                                                         0.586631       0.969458
                                                         0.222851       0.077327
                                                         0.084583      -0.117711
                                                         0.039194       0.027593

                          1       7    4dx2              9.042730       1.099742
                                                         3.882225       0.532064
                                                         1.512880       0.873643
                                                         0.586631       0.456348
                                                         0.222851       0.017840
                                                         0.084583      -0.000857
                                                         0.039194      -0.000086
                          1       7    4dxy              9.042730       1.904809
                                                         3.882225       0.921562
                                                         1.512880       1.513195
                                                         0.586631       0.790419
                                                         0.222851       0.030900
                                                         0.084583      -0.001484
                                                         0.039194      -0.000150
                          1       7    4dxz              9.042730       1.904809
                                                         3.882225       0.921562
                                                         1.512880       1.513195
                                                         0.586631       0.790419
                                                         0.222851       0.030900
                                                         0.084583      -0.001484
                                                         0.039194      -0.000150
                          1       7    4dy2              9.042730       1.099742
                                                         3.882225       0.532064
                                                         1.512880       0.873643
                                                         0.586631       0.456348
                                                         0.222851       0.017840
                                                         0.084583      -0.000857
                                                         0.039194      -0.000086
                          1       7    4dyz              9.042730       1.904809
                                                         3.882225       0.921562
                                                         1.512880       1.513195
                                                         0.586631       0.790419
                                                         0.222851       0.030900
                                                         0.084583      -0.001484
                                                         0.039194      -0.000150
                          1       7    4dz2              9.042730       1.099742
                                                         3.882225       0.532064
                                                         1.512880       0.873643
                                                         0.586631       0.456348
                                                         0.222851       0.017840
                                                         0.084583      -0.000857
                                                         0.039194      -0.000086

     Auxiliary Fit Basis Set                                         admm-dzp-q5

       Number of orbital shell sets:                                           5
       Number of orbital shells:                                               5
       Number of primitive Cartesian functions:                                7
       Number of Cartesian basis functions:                                   14
       Number of spherical basis functions:                                   13
       Norm type:                                                              2

       Normalised Cartesian orbitals:

                        Set   Shell   Orbital            Exponent    Coefficient

                          1       1    1s                6.298138      -0.713353
                                                         0.651986       0.561779

                          2       1    1s                0.203084       0.215609

                          3       1    1px               4.446382      -1.980936
                                                         0.998459       1.560023
                          3       1    1py               4.446382      -1.980936
                                                         0.998459       1.560023
                          3       1    1pz               4.446382      -1.980936
                                                         0.998459       1.560023

                          4       1    1px               0.225435       0.221420
                          4       1    1py               0.225435       0.221420
                          4       1    1pz               0.225435       0.221420

                          5       1    1dx2              0.817000       1.155575
                          5       1    1dxy              0.817000       2.001514
                          5       1    1dxz              0.817000       2.001514
                          5       1    1dy2              0.817000       1.155575
                          5       1    1dyz              0.817000       2.001514
                          5       1    1dz2              0.817000       1.155575

       Atomic covalent radius [Angstrom]:                                  0.750

       Atomic van der Waals radius [Angstrom]:                             1.550

     GTH Potential information for                                   GTH-PADE-q5

       Description:                       Goedecker-Teter-Hutter pseudopotential
                                           Goedecker et al., PRB 54, 1703 (1996)
                                          Hartwigsen et al., PRB 58, 3641 (1998)
                                                      Krack, TCA 114, 145 (2005)

       Gaussian exponent of the core charge distribution:               5.979100
       Electronic configuration (s p d ...):                               2   3

       Parameters of the local part of the GTH pseudopotential:

                          rloc        C1          C2          C3          C4
                        0.289179  -12.234820    1.766407

       Parameters of the non-local part of the GTH pseudopotential:

                   l      r(l)      h(i,j,l)

                   0    0.256605   13.552243
                   1    0.270134


 MOLECULE KIND INFORMATION


 All atoms are their own molecule, skipping detailed information


 TOTAL NUMBERS AND MAXIMUM NUMBERS

  Total number of            - Atomic kinds:                                   2
                             - Atoms:                                         97
                             - Shell sets:                                    97
                             - Shells:                                       679
                             - Primitive Cartesian functions:                583
                             - Cartesian basis functions:                   1746
                             - Spherical basis functions:                   1649

  Maximum angular momentum of- Orbital basis functions:                        2
                             - Local part of the GTH pseudopotential:          2
                             - Non-local part of the GTH pseudopotential:      0

  AUX_FIT ADMM-Basis: 
  Total number of            - Shell sets:                                   485
                             - Shells:                                       485
                             - Primitive Cartesian functions:                679
                             - Cartesian basis functions:                   1358
                             - Spherical basis functions:                   1261
                               Maximum angular momentum                        2


 MODULE QUICKSTEP:  ATOMIC COORDINATES IN angstrom

  Atom  Kind  Element       X           Y           Z          Z(eff)       Mass

       1     1 B    5    7.476831   14.484024    1.666807      3.0000      10.8110
       2     1 B    5   14.989955    1.473079    1.666746      3.0000      10.8110
       3     1 B    5   13.738880    3.640836    1.667132      3.0000      10.8110
       4     1 B    5   12.486784    5.808723    1.667115      3.0000      10.8110
       5     1 B    5   11.234060    7.976389    1.666793      3.0000      10.8110
       6     1 B    5    9.980757   10.144432    1.666656      3.0000      10.8110
       7     1 B    5    8.728116   12.314380    1.667159      3.0000      10.8110
       8     1 B    5   -7.546364   14.484636    1.666824      3.0000      10.8110
       9     1 B    5   -0.034359    1.474303    1.666841      3.0000      10.8110
      10     1 B    5   -1.285221    3.642664    1.666885      3.0000      10.8110
      11     1 B    5   -2.535607    5.808613    1.666633      3.0000      10.8110
      12     1 B    5   -3.788135    7.976262    1.666977      3.0000      10.8110
      13     1 B    5   -5.041133   10.144946    1.666722      3.0000      10.8110
      14     1 B    5   -6.294068   12.314534    1.666825      3.0000      10.8110
      15     1 B    5   -5.041167   14.484826    1.666977      3.0000      10.8110
      16     1 B    5    2.470314    1.475574    1.667101      3.0000      10.8110
      17     1 B    5    1.218529    3.645033    1.667095      3.0000      10.8110
      18     1 B    5   -0.029230    5.811977    1.666684      3.0000      10.8110
      19     1 B    5   -1.281724    7.975508    1.666696      3.0000      10.8110
      20     1 B    5   -2.534842   10.144443    1.667076      3.0000      10.8110
      21     1 B    5   -3.788054   12.314589    1.667113      3.0000      10.8110
      22     1 B    5   -2.535606   14.484590    1.667094      3.0000      10.8110
      23     1 B    5    4.975810    1.475415    1.667105      3.0000      10.8110
      24     1 B    5    3.723212    3.645693    1.667167      3.0000      10.8110
      25     1 B    5    2.483783    5.823187    1.667126      3.0000      10.8110
      26     1 B    5    1.237365    7.982160    1.666908      3.0000      10.8110
      27     1 B    5   -0.028674   10.143960    1.667155      3.0000      10.8110
      28     1 B    5   -1.282084   12.314371    1.667326      3.0000      10.8110
      29     1 B    5   -0.030888   14.483819    1.667055      3.0000      10.8110
      30     1 B    5    7.480118    1.474123    1.667177      3.0000      10.8110
      31     1 B    5    6.227508    3.644816    1.667104      3.0000      10.8110
      32     1 B    5    4.962414    5.823094    1.666576      3.0000      10.8110
      33     1 B    5    2.476640   10.128387    1.666842      3.0000      10.8110
      34     1 B    5    1.222766   12.313354    1.666930      3.0000      10.8110
      35     1 B    5    2.472485   14.482794    1.666739      3.0000      10.8110
      36     1 B    5    9.983735    1.472877    1.667255      3.0000      10.8110
      37     1 B    5    8.730887    3.642574    1.667306      3.0000      10.8110
      38     1 B    5    7.474813    5.811824    1.666697      3.0000      10.8110
      39     1 B    5    6.208753    7.981876    1.666677      3.0000      10.8110
      40     1 B    5    4.969428   10.128281    1.667138      3.0000      10.8110
      41     1 B    5    3.722751   12.310459    1.666915      3.0000      10.8110
      42     1 B    5    4.973339   14.483090    1.667048      3.0000      10.8110
      43     1 B    5   12.486888    1.472500    1.667221      3.0000      10.8110
      44     1 B    5   11.234921    3.640922    1.667470      3.0000      10.8110
      45     1 B    5    9.981379    5.808779    1.667252      3.0000      10.8110
      46     1 B    5    8.727781    7.975714    1.666930      3.0000      10.8110
      47     1 B    5    7.474831   10.144148    1.667020      3.0000      10.8110
      48     1 B    5    6.223135   12.313569    1.667191      3.0000      10.8110
      49     2 N    7    8.731032   13.762631    1.666790      5.0000      14.0067
      50     2 N    7   16.241496    0.750550    1.666568      5.0000      14.0067
      51     2 N    7   14.988869    2.917570    1.666707      5.0000      14.0067
      52     2 N    7   13.737326    5.085233    1.666780      5.0000      14.0067
      53     2 N    7   12.486873    7.253904    1.666780      5.0000      14.0067
      54     2 N    7   11.236355    9.423075    1.666484      5.0000      14.0067
      55     2 N    7    9.984247   11.593027    1.666747      5.0000      14.0067
      56     2 N    7   -6.293110   13.760841    1.666609      5.0000      14.0067
      57     2 N    7    1.217536    0.748931    1.666753      5.0000      14.0067
      58     2 N    7   -0.036681    2.915781    1.666759      5.0000      14.0067
      59     2 N    7   -1.289244    5.084290    1.666428      5.0000      14.0067
      60     2 N    7   -2.540942    7.253328    1.666498      5.0000      14.0067
      61     2 N    7   -3.790566    9.423056    1.666738      5.0000      14.0067
      62     2 N    7   -5.041053   11.592238    1.666610      5.0000      14.0067
      63     2 N    7   -3.789018   13.760885    1.666923      5.0000      14.0067
      64     2 N    7    3.722992    0.748189    1.666974      5.0000      14.0067
      65     2 N    7    2.468824    2.913315    1.666866      5.0000      14.0067
      66     2 N    7    1.212229    5.079098    1.666876      5.0000      14.0067
      67     2 N    7   -0.042989    7.253287    1.666499      5.0000      14.0067
      68     2 N    7   -1.290373    9.424189    1.666839      5.0000      14.0067
      69     2 N    7   -2.538377   11.593064    1.666967      5.0000      14.0067
      70     2 N    7   -1.285134   13.762550    1.666928      5.0000      14.0067
      71     2 N    7    6.228379    0.748790    1.666898      5.0000      14.0067
      72     2 N    7    4.977329    2.913139    1.666883      5.0000      14.0067
      73     2 N    7    3.723103    5.072369    1.666703      5.0000      14.0067
      74     2 N    7    2.405804    7.217463    1.666466      5.0000      14.0067
      75     2 N    7    1.206805    9.430694    1.666635      5.0000      14.0067
      76     2 N    7   -0.036179   11.596562    1.666933      5.0000      14.0067
      77     2 N    7    1.218658   13.765050    1.666665      5.0000      14.0067
      78     2 N    7    8.732187    0.750384    1.666913      5.0000      14.0067
      79     2 N    7    7.482537    2.915583    1.666953      5.0000      14.0067
      80     2 N    7    6.233679    5.078821    1.666621      5.0000      14.0067
      81     2 N    7    5.040272    7.217370    1.666118      5.0000      14.0067
      82     2 N    7    3.723014    9.498748    1.666400      5.0000      14.0067
      83     2 N    7    2.467621   11.601722    1.666738      5.0000      14.0067
      84     2 N    7    3.722927   13.765597    1.666684      5.0000      14.0067
      85     2 N    7   11.235388    0.751657    1.666886      5.0000      14.0067
      86     2 N    7    9.984838    2.917527    1.667191      5.0000      14.0067
      87     2 N    7    8.734943    5.084270    1.666886      5.0000      14.0067
      88     2 N    7    7.489021    7.253185    1.666619      5.0000      14.0067
      89     2 N    7    6.239358    9.430610    1.666642      5.0000      14.0067
      90     2 N    7    4.978169   11.601740    1.666900      5.0000      14.0067
      91     2 N    7    6.227180   13.765277    1.666834      5.0000      14.0067
      92     2 N    7   13.738352    0.751813    1.666734      5.0000      14.0067
      93     2 N    7   12.486895    2.918102    1.667061      5.0000      14.0067
      94     2 N    7   11.236273    5.085300    1.667016      5.0000      14.0067
      95     2 N    7    9.986856    7.253464    1.666714      5.0000      14.0067
      96     2 N    7    8.736344    9.424283    1.666636      5.0000      14.0067
      97     2 N    7    7.482098   11.596739    1.666940      5.0000      14.0067




 SCF PARAMETERS         Density guess:                                   RESTART
                        --------------------------------------------------------
                        max_scf:                                             200
                        max_scf_history:                                       0
                        max_diis:                                              4
                        --------------------------------------------------------
                        eps_scf:                                        1.00E-07
                        eps_scf_history:                                0.00E+00
                        eps_diis:                                       1.00E-01
                        eps_eigval:                                     1.00E-05
                        --------------------------------------------------------
                        level_shift [a.u.]:                                 0.00
                        added MOs                                        10   10
                        MOM enabled
                        --------------------------------------------------------
                        Mixing method:                           DIRECT_P_MIXING
                        --------------------------------------------------------
                        No outer SCF

 PW_GRID| Information for grid number                                          1
 PW_GRID| Grid distributed over                                   768 processors
 PW_GRID| Real space group dimensions                                    24   32
 PW_GRID| the grid is blocked:                                               YES
 PW_GRID| Cutoff [a.u.]                                                    250.0
 PW_GRID| spherical cutoff:                                                   NO
 PW_GRID|   Bounds   1           -120     119                Points:         240
 PW_GRID|   Bounds   2           -120     119                Points:         240
 PW_GRID|   Bounds   3           -108     107                Points:         216
 PW_GRID| Volume element (a.u.^3)  0.2165E-02     Volume (a.u.^3)     26932.5994
 PW_GRID| Grid span                                                    FULLSPACE
 PW_GRID|   Distribution                         Average         Max         Min
 PW_GRID|   G-Vectors                            16200.0       16800       14400
 PW_GRID|   G-Rays                                  67.5          70          60
 PW_GRID|   Real Space Points                    16200.0       16800       14400

 PW_GRID| Information for grid number                                          2
 PW_GRID| Number of the reference grid                                         1
 PW_GRID| Grid distributed over                                   768 processors
 PW_GRID| Real space group dimensions                                    24   32
 PW_GRID| the grid is blocked:                                                NO
 PW_GRID| Cutoff [a.u.]                                                     83.3
 PW_GRID| spherical cutoff:                                                   NO
 PW_GRID|   Bounds   1            -72      71                Points:         144
 PW_GRID|   Bounds   2            -72      71                Points:         144
 PW_GRID|   Bounds   3            -60      59                Points:         120
 PW_GRID| Volume element (a.u.^3)  0.1082E-01     Volume (a.u.^3)     26932.5994
 PW_GRID| Grid span                                                    FULLSPACE
 PW_GRID|   Distribution                         Average         Max         Min
 PW_GRID|   G-Vectors                             3240.0       10080           0
 PW_GRID|   G-Rays                                  22.5          70           0
 PW_GRID|   Real Space Points                     3240.0        3600        2880

 PW_GRID| Information for grid number                                          3
 PW_GRID| Number of the reference grid                                         1
 PW_GRID| Grid distributed over                                   768 processors
 PW_GRID| Real space group dimensions                                    24   32
 PW_GRID| the grid is blocked:                                                NO
 PW_GRID| Cutoff [a.u.]                                                     27.8
 PW_GRID| spherical cutoff:                                                   NO
 PW_GRID|   Bounds   1            -40      39                Points:          80
 PW_GRID|   Bounds   2            -40      39                Points:          80
 PW_GRID|   Bounds   3            -36      35                Points:          72
 PW_GRID| Volume element (a.u.^3)  0.5845E-01     Volume (a.u.^3)     26932.5994
 PW_GRID| Grid span                                                    FULLSPACE
 PW_GRID|   Distribution                         Average         Max         Min
 PW_GRID|   G-Vectors                              600.0        5600           0
 PW_GRID|   G-Rays                                   7.5          70           0
 PW_GRID|   Real Space Points                      600.0         864         432

 PW_GRID| Information for grid number                                          4
 PW_GRID| Number of the reference grid                                         1
 PW_GRID| Grid distributed over                                   768 processors
 PW_GRID| Real space group dimensions                                    24   32
 PW_GRID| the grid is blocked:                                                NO
 PW_GRID| Cutoff [a.u.]                                                      9.3
 PW_GRID| spherical cutoff:                                                   NO
 PW_GRID|   Bounds   1            -22      22                Points:          45
 PW_GRID|   Bounds   2            -22      22                Points:          45
 PW_GRID|   Bounds   3            -20      19                Points:          40
 PW_GRID| Volume element (a.u.^3)  0.3325         Volume (a.u.^3)     26932.5994
 PW_GRID| Grid span                                                    FULLSPACE
 PW_GRID|   Distribution                         Average         Max         Min
 PW_GRID|   G-Vectors                              105.5        3150           0
 PW_GRID|   G-Rays                                   2.3          70           0
 PW_GRID|   Real Space Points                      105.5         160          40

 POISSON| Solver                                                        PERIODIC
 POISSON| Periodicity                                                        XYZ

 RS_GRID| Information for grid number                                          1
 RS_GRID|   Bounds   1           -120     119                Points:         240
 RS_GRID|   Bounds   2           -120     119                Points:         240
 RS_GRID|   Bounds   3           -108     107                Points:         216
 RS_GRID| Real space distribution over                                  8 groups
 RS_GRID| Real space distribution along direction                              1
 RS_GRID| Border size                                                         54
 RS_GRID| Real space distribution over                                 12 groups
 RS_GRID| Real space distribution along direction                              2
 RS_GRID| Border size                                                         54
 RS_GRID| Real space distribution over                                  8 groups
 RS_GRID| Real space distribution along direction                              3
 RS_GRID| Border size                                                         54
 RS_GRID|   Distribution                         Average         Max         Min
 RS_GRID|   Planes                                 138.0         138         138
 RS_GRID|   Distribution                         Average         Max         Min
 RS_GRID|   Planes                                 128.0         128         128
 RS_GRID|   Distribution                         Average         Max         Min
 RS_GRID|   Planes                                 135.0         135         135

 RS_GRID| Information for grid number                                          2
 RS_GRID|   Bounds   1            -72      71                Points:         144
 RS_GRID|   Bounds   2            -72      71                Points:         144
 RS_GRID|   Bounds   3            -60      59                Points:         120
 RS_GRID| Real space fully replicated
 RS_GRID| Group size                                                           1

 RS_GRID| Information for grid number                                          3
 RS_GRID|   Bounds   1            -40      39                Points:          80
 RS_GRID|   Bounds   2            -40      39                Points:          80
 RS_GRID|   Bounds   3            -36      35                Points:          72
 RS_GRID| Real space fully replicated
 RS_GRID| Group size                                                           1

 RS_GRID| Information for grid number                                          4
 RS_GRID|   Bounds   1            -22      22                Points:          45
 RS_GRID|   Bounds   2            -22      22                Points:          45
 RS_GRID|   Bounds   3            -20      19                Points:          40
 RS_GRID| Real space fully replicated
 RS_GRID| Group size                                                           1

 *** WARNING in hfx_types.F:1968 :: Periodic Hartree Fock calculation      ***
 *** requested with use of a truncated or shortrange potential. The cutoff ***
 *** radius is larger than half the minimal cell dimension. This may lead  ***
 *** to unphysical total energies. Reduce the cutoff radius in order to    ***
 *** avoid possible problems.                                              ***


  HFX_INFO| Replica ID:                                                        1
  HFX_INFO| FRACTION:                                               0.2500000000
  HFX_INFO| Interaction Potential:                                    SHORTRANGE
  HFX_INFO| Omega:                                                  0.1058000000
  HFX_INFO| Cutoff Radius [angstrom]:                              14.8159042860
  HFX_INFO| EPS_SCHWARZ:                                                 1.0E-06
  HFX_INFO| EPS_SCHWARZ_FORCES                                           1.0E-06
  HFX_INFO| EPS_STORAGE_SCALING:                                         1.0E-01
  HFX_INFO| NBINS:                                                            64
  HFX_INFO| BLOCK_SIZE:                                                        1
  HFX_INFO| NUMBER_OF_SHELLS:                                               AUTO
  HFX_INFO| Number of periodic shells considered:                             -1
  HFX_INFO| Number of periodic cells considered:                              45


 Spin 1

 Number of electrons:                                                        196
 Number of occupied orbitals:                                                196
 Number of molecular orbitals:                                               206

 Spin 2

 Number of electrons:                                                        194
 Number of occupied orbitals:                                                194
 Number of molecular orbitals:                                               204

 Number of orbital functions:                                               1649
 Number of independent orbital functions:                                   1649

 Extrapolation method: initial_guess

 MO| EIGENVALUES AND OCCUPATION NUMBERS AFTER SCF STEP 0
 MO|
 MO|  Index      Eigenvalue [a.u.]        Eigenvalue [eV]             Occupation
 MO|      1               0.000000               0.000000               1.000000
 MO|      2               0.000000               0.000000               1.000000
 MO|      3               0.000000               0.000000               1.000000
 MO|      4               0.000000               0.000000               1.000000
 MO|      5               0.000000               0.000000               1.000000
 MO|      6               0.000000               0.000000               1.000000
 MO|      7               0.000000               0.000000               1.000000
 MO|      8               0.000000               0.000000               1.000000
 MO|      9               0.000000               0.000000               1.000000
 MO|     10               0.000000               0.000000               1.000000
 MO|     11               0.000000               0.000000               1.000000
 MO|     12               0.000000               0.000000               1.000000
 MO|     13               0.000000               0.000000               1.000000
 MO|     14               0.000000               0.000000               1.000000
 MO|     15               0.000000               0.000000               1.000000
 MO|     16               0.000000               0.000000               1.000000
 MO|     17               0.000000               0.000000               1.000000
 MO|     18               0.000000               0.000000               1.000000
 MO|     19               0.000000               0.000000               1.000000
 MO|     20               0.000000               0.000000               1.000000
 MO|     21               0.000000               0.000000               1.000000
 MO|     22               0.000000               0.000000               1.000000
 MO|     23               0.000000               0.000000               1.000000
 MO|     24               0.000000               0.000000               1.000000
 MO|     25               0.000000               0.000000               1.000000
 MO|     26               0.000000               0.000000               1.000000
 MO|     27               0.000000               0.000000               1.000000
 MO|     28               0.000000               0.000000               1.000000
 MO|     29               0.000000               0.000000               1.000000
 MO|     30               0.000000               0.000000               1.000000
 MO|     31               0.000000               0.000000               1.000000
 MO|     32               0.000000               0.000000               1.000000
 MO|     33               0.000000               0.000000               1.000000
 MO|     34               0.000000               0.000000               1.000000
 MO|     35               0.000000               0.000000               1.000000
 MO|     36               0.000000               0.000000               1.000000
 MO|     37               0.000000               0.000000               1.000000
 MO|     38               0.000000               0.000000               1.000000
 MO|     39               0.000000               0.000000               1.000000
 MO|     40               0.000000               0.000000               1.000000
 MO|     41               0.000000               0.000000               1.000000
 MO|     42               0.000000               0.000000               1.000000
 MO|     43               0.000000               0.000000               1.000000
 MO|     44               0.000000               0.000000               1.000000
 MO|     45               0.000000               0.000000               1.000000
 MO|     46               0.000000               0.000000               1.000000
 MO|     47               0.000000               0.000000               1.000000
 MO|     48               0.000000               0.000000               1.000000
 MO|     49               0.000000               0.000000               1.000000
 MO|     50               0.000000               0.000000               1.000000
 MO|     51               0.000000               0.000000               1.000000
 MO|     52               0.000000               0.000000               1.000000
 MO|     53               0.000000               0.000000               1.000000
 MO|     54               0.000000               0.000000               1.000000
 MO|     55               0.000000               0.000000               1.000000
 MO|     56               0.000000               0.000000               1.000000
 MO|     57               0.000000               0.000000               1.000000
 MO|     58               0.000000               0.000000               1.000000
 MO|     59               0.000000               0.000000               1.000000
 MO|     60               0.000000               0.000000               1.000000
 MO|     61               0.000000               0.000000               1.000000
 MO|     62               0.000000               0.000000               1.000000
 MO|     63               0.000000               0.000000               1.000000
 MO|     64               0.000000               0.000000               1.000000
 MO|     65               0.000000               0.000000               1.000000
 MO|     66               0.000000               0.000000               1.000000
 MO|     67               0.000000               0.000000               1.000000
 MO|     68               0.000000               0.000000               1.000000
 MO|     69               0.000000               0.000000               1.000000
 MO|     70               0.000000               0.000000               1.000000
 MO|     71               0.000000               0.000000               1.000000
 MO|     72               0.000000               0.000000               1.000000
 MO|     73               0.000000               0.000000               1.000000
 MO|     74               0.000000               0.000000               1.000000
 MO|     75               0.000000               0.000000               1.000000
 MO|     76               0.000000               0.000000               1.000000
 MO|     77               0.000000               0.000000               1.000000
 MO|     78               0.000000               0.000000               1.000000
 MO|     79               0.000000               0.000000               1.000000
 MO|     80               0.000000               0.000000               1.000000
 MO|     81               0.000000               0.000000               1.000000
 MO|     82               0.000000               0.000000               1.000000
 MO|     83               0.000000               0.000000               1.000000
 MO|     84               0.000000               0.000000               1.000000
 MO|     85               0.000000               0.000000               1.000000
 MO|     86               0.000000               0.000000               1.000000
 MO|     87               0.000000               0.000000               1.000000
 MO|     88               0.000000               0.000000               1.000000
 MO|     89               0.000000               0.000000               1.000000
 MO|     90               0.000000               0.000000               1.000000
 MO|     91               0.000000               0.000000               1.000000
 MO|     92               0.000000               0.000000               1.000000
 MO|     93               0.000000               0.000000               1.000000
 MO|     94               0.000000               0.000000               1.000000
 MO|     95               0.000000               0.000000               1.000000
 MO|     96               0.000000               0.000000               1.000000
 MO|     97               0.000000               0.000000               1.000000
 MO|     98               0.000000               0.000000               1.000000
 MO|     99               0.000000               0.000000               1.000000
 MO|    100               0.000000               0.000000               1.000000
 MO|    101               0.000000               0.000000               1.000000
 MO|    102               0.000000               0.000000               1.000000
 MO|    103               0.000000               0.000000               1.000000
 MO|    104               0.000000               0.000000               1.000000
 MO|    105               0.000000               0.000000               1.000000
 MO|    106               0.000000               0.000000               1.000000
 MO|    107               0.000000               0.000000               1.000000
 MO|    108               0.000000               0.000000               1.000000
 MO|    109               0.000000               0.000000               1.000000
 MO|    110               0.000000               0.000000               1.000000
 MO|    111               0.000000               0.000000               1.000000
 MO|    112               0.000000               0.000000               1.000000
 MO|    113               0.000000               0.000000               1.000000
 MO|    114               0.000000               0.000000               1.000000
 MO|    115               0.000000               0.000000               1.000000
 MO|    116               0.000000               0.000000               1.000000
 MO|    117               0.000000               0.000000               1.000000
 MO|    118               0.000000               0.000000               1.000000
 MO|    119               0.000000               0.000000               1.000000
 MO|    120               0.000000               0.000000               1.000000
 MO|    121               0.000000               0.000000               1.000000
 MO|    122               0.000000               0.000000               1.000000
 MO|    123               0.000000               0.000000               1.000000
 MO|    124               0.000000               0.000000               1.000000
 MO|    125               0.000000               0.000000               1.000000
 MO|    126               0.000000               0.000000               1.000000
 MO|    127               0.000000               0.000000               1.000000
 MO|    128               0.000000               0.000000               1.000000
 MO|    129               0.000000               0.000000               1.000000
 MO|    130               0.000000               0.000000               1.000000
 MO|    131               0.000000               0.000000               1.000000
 MO|    132               0.000000               0.000000               1.000000
 MO|    133               0.000000               0.000000               1.000000
 MO|    134               0.000000               0.000000               1.000000
 MO|    135               0.000000               0.000000               1.000000
 MO|    136               0.000000               0.000000               1.000000
 MO|    137               0.000000               0.000000               1.000000
 MO|    138               0.000000               0.000000               1.000000
 MO|    139               0.000000               0.000000               1.000000
 MO|    140               0.000000               0.000000               1.000000
 MO|    141               0.000000               0.000000               1.000000
 MO|    142               0.000000               0.000000               1.000000
 MO|    143               0.000000               0.000000               1.000000
 MO|    144               0.000000               0.000000               1.000000
 MO|    145               0.000000               0.000000               1.000000
 MO|    146               0.000000               0.000000               1.000000
 MO|    147               0.000000               0.000000               1.000000
 MO|    148               0.000000               0.000000               1.000000
 MO|    149               0.000000               0.000000               1.000000
 MO|    150               0.000000               0.000000               1.000000
 MO|    151               0.000000               0.000000               1.000000
 MO|    152               0.000000               0.000000               1.000000
 MO|    153               0.000000               0.000000               1.000000
 MO|    154               0.000000               0.000000               1.000000
 MO|    155               0.000000               0.000000               1.000000
 MO|    156               0.000000               0.000000               1.000000
 MO|    157               0.000000               0.000000               1.000000
 MO|    158               0.000000               0.000000               1.000000
 MO|    159               0.000000               0.000000               1.000000
 MO|    160               0.000000               0.000000               1.000000
 MO|    161               0.000000               0.000000               1.000000
 MO|    162               0.000000               0.000000               1.000000
 MO|    163               0.000000               0.000000               1.000000
 MO|    164               0.000000               0.000000               1.000000
 MO|    165               0.000000               0.000000               1.000000
 MO|    166               0.000000               0.000000               1.000000
 MO|    167               0.000000               0.000000               1.000000
 MO|    168               0.000000               0.000000               1.000000
 MO|    169               0.000000               0.000000               1.000000
 MO|    170               0.000000               0.000000               1.000000
 MO|    171               0.000000               0.000000               1.000000
 MO|    172               0.000000               0.000000               1.000000
 MO|    173               0.000000               0.000000               1.000000
 MO|    174               0.000000               0.000000               1.000000
 MO|    175               0.000000               0.000000               1.000000
 MO|    176               0.000000               0.000000               1.000000
 MO|    177               0.000000               0.000000               1.000000
 MO|    178               0.000000               0.000000               1.000000
 MO|    179               0.000000               0.000000               1.000000
 MO|    180               0.000000               0.000000               1.000000
 MO|    181               0.000000               0.000000               1.000000
 MO|    182               0.000000               0.000000               1.000000
 MO|    183               0.000000               0.000000               1.000000
 MO|    184               0.000000               0.000000               1.000000
 MO|    185               0.000000               0.000000               1.000000
 MO|    186               0.000000               0.000000               1.000000
 MO|    187               0.000000               0.000000               1.000000
 MO|    188               0.000000               0.000000               1.000000
 MO|    189               0.000000               0.000000               1.000000
 MO|    190               0.000000               0.000000               1.000000
 MO|    191               0.000000               0.000000               1.000000
 MO|    192               0.000000               0.000000               1.000000
 MO|    193               0.000000               0.000000               1.000000
 MO|    194               0.000000               0.000000               1.000000
 MO|    195               0.000000               0.000000               1.000000
 MO|    196               0.000000               0.000000               1.000000
 MO|    197               0.000000               0.000000               0.000000
 MO|    198               0.000000               0.000000               0.000000
 MO|    199               0.000000               0.000000               0.000000
 MO|    200               0.000000               0.000000               0.000000
 MO|    201               0.000000               0.000000               0.000000
 MO|    202               0.000000               0.000000               0.000000
 MO|    203               0.000000               0.000000               0.000000
 MO|    204               0.000000               0.000000               0.000000
 MO|    205               0.000000               0.000000               0.000000
 MO|    206               0.000000               0.000000               0.000000
 MO| Sum:                                                             196.000000
 MO| E(Fermi):            0.000000 a.u.          0.000000 eV
 MO| Band gap:            0.000000 a.u.          0.000000 eV


 MO| EIGENVALUES AND OCCUPATION NUMBERS AFTER SCF STEP 0
 MO|
 MO|  Index      Eigenvalue [a.u.]        Eigenvalue [eV]             Occupation
 MO|      1               0.000000               0.000000               1.000000
 MO|      2               0.000000               0.000000               1.000000
 MO|      3               0.000000               0.000000               1.000000
 MO|      4               0.000000               0.000000               1.000000
 MO|      5               0.000000               0.000000               1.000000
 MO|      6               0.000000               0.000000               1.000000
[...]
     68       N      2       5.000    2.706   2.705            0.000     -0.411
     69       N      2       5.000    2.705   2.706           -0.000     -0.411
     70       N      2       5.000    2.705   2.705           -0.000     -0.410
     71       N      2       5.000    2.705   2.705           -0.000     -0.410
     72       N      2       5.000    2.706   2.705            0.000     -0.411
     73       N      2       5.000    2.705   2.696            0.010     -0.401
     74       N      2       5.000    2.992   2.409            0.583     -0.401
     75       N      2       5.000    2.705   2.696            0.010     -0.401
     76       N      2       5.000    2.706   2.705            0.000     -0.411
     77       N      2       5.000    2.706   2.704            0.001     -0.410
     78       N      2       5.000    2.705   2.705            0.000     -0.410
     79       N      2       5.000    2.706   2.704            0.001     -0.410
     80       N      2       5.000    2.718   2.692            0.025     -0.410
     81       N      2       5.000    2.992   2.409            0.583     -0.401
     82       N      2       5.000    2.992   2.409            0.582     -0.401
     83       N      2       5.000    2.718   2.692            0.025     -0.410
     84       N      2       5.000    2.705   2.705            0.000     -0.410
     85       N      2       5.000    2.705   2.705            0.000     -0.410
     86       N      2       5.000    2.705   2.705            0.000     -0.410
     87       N      2       5.000    2.705   2.705            0.000     -0.410
     88       N      2       5.000    2.718   2.692            0.025     -0.410
     89       N      2       5.000    2.705   2.696            0.010     -0.401
     90       N      2       5.000    2.718   2.692            0.025     -0.410
     91       N      2       5.000    2.706   2.704            0.001     -0.410
     92       N      2       5.000    2.705   2.705            0.000     -0.410
     93       N      2       5.000    2.705   2.705            0.000     -0.410
     94       N      2       5.000    2.705   2.705            0.000     -0.410
     95       N      2       5.000    2.706   2.704            0.001     -0.410
     96       N      2       5.000    2.706   2.705            0.000     -0.411
     97       N      2       5.000    2.706   2.705            0.000     -0.411

  Total Charge                                                           -0.977
 !-----------------------------------------------------------------------------!

 ENERGY| Total FORCE_EVAL ( QS ) energy [a.u.]:             -630.193155302601212

 -------------------------------------------------------------------------------
 -                                                                             -
 -                                DBCSR STATISTICS                             -
 -                                                                             -
 -------------------------------------------------------------------------------
 COUNTER                                    TOTAL       BLAS       SMM       ACC
 flops    13 x    13 x    12            501232368       0.0%    100.0%      0.0%
 flops    13 x    13 x    14            584771096       0.0%    100.0%      0.0%
 flops    17 x    17 x    12            923070624       0.0%    100.0%      0.0%
 flops    17 x    17 x    14           1076915728       0.0%    100.0%      0.0%
 flops    17 x    12 x    17           1827303072       0.0%    100.0%      0.0%
 flops    17 x    14 x    17           2055715956       0.0%    100.0%      0.0%
 flops    13 x    13 x    32          16039435776       0.0%    100.0%      0.0%
 flops    17 x    17 x    32          29538259968       0.0%    100.0%      0.0%
 flops    17 x    32 x    17          57429525120       0.0%    100.0%      0.0%
 flops inhomo. stacks                           0       0.0%      0.0%      0.0%
 flops total                       109.976230E+09       0.0%    100.0%      0.0%
 flops max/rank                    782.879800E+06       0.0%    100.0%      0.0%
 matmuls inhomo. stacks                         0       0.0%      0.0%      0.0%
 matmuls total                            7215733       0.0%    100.0%      0.0%
 number of processed stacks                876288       0.0%    100.0%      0.0%
 average stack size                                     0.0       8.2       0.0
 marketing flops                   152.847401E+09
 -------------------------------------------------------------------------------
 # multiplications                            163
 max memory usage/rank             798.195712E+06
 # max total images/rank                        3
 # max 3D layers                                1
 # MPI messages exchanged                11516928
 MPI messages size (bytes):
  total size                        74.520871E+09
  min size                           0.000000E+00
  max size                          48.552000E+03
  average size                       6.470551E+03
 MPI breakdown and total messages size (bytes):
             size <=      128             8141616                        0
       128 < size <=     8192              355650               1988944080
      8192 < size <=    32768             2978302              70792763280
     32768 < size <=   131072               41360               1739167320
    131072 < size <=  4194304                   0                        0
   4194304 < size <= 16777216                   0                        0
  16777216 < size                               0                        0
 -------------------------------------------------------------------------------

 *** WARNING in dbcsr_mm.F:294 :: Using a non-square number of MPI ranks ***
 *** might lead to poor performance. Used ranks: 768 Suggested: 784 1521 ***

 -------------------------------------------------------------------------------
 -                                                                             -
 -                      DBCSR MESSAGE PASSING PERFORMANCE                      -
 -                                                                             -
 -------------------------------------------------------------------------------
 ROUTINE             CALLS      AVE VOLUME [Bytes]
 MP_Bcast               10                     12.
 MP_Allreduce          898                      9.
 MP_Alltoall          5131                1383824.
 MP_ISend            31296                   3862.
 MP_IRecv            31296                   3702.
 -------------------------------------------------------------------------------

 -------------------------------------------------------------------------------
 -                                                                             -
 -                                GRID STATISTICS                              -
 -                                                                             -
 -------------------------------------------------------------------------------
 LP    KERNEL             BACKEND                              COUNT     PERCENT
 4     collocate general  REF                               11540656      33.20%
 4     integrate general  REF                               11118068      31.99%
 1     collocate general  REF                                2197728       6.32%
 1     integrate general  REF                                2197728       6.32%
 2     collocate general  REF                                1842828       5.30%
 2     integrate general  REF                                1842828       5.30%
 0     collocate general  REF                                1284256       3.69%
 0     integrate general  REF                                1284256       3.69%
 3     collocate general  REF                                 724776       2.09%
 3     integrate general  REF                                 724776       2.09%
 -------------------------------------------------------------------------------

 MEMORY| Estimated peak process memory [MiB]                                 762

 -------------------------------------------------------------------------------
 ----                             MULTIGRID INFO                            ----
 -------------------------------------------------------------------------------
 count for grid        1:       12377324          cutoff [a.u.]          250.00
 count for grid        2:        6493146          cutoff [a.u.]           83.33
 count for grid        3:        2647533          cutoff [a.u.]           27.78
 count for grid        4:        1482109          cutoff [a.u.]            9.26
 total gridlevel count  :       23000112

 -------------------------------------------------------------------------------
 -                                                                             -
 -                         MESSAGE PASSING PERFORMANCE                         -
 -                                                                             -
 -------------------------------------------------------------------------------

 ROUTINE             CALLS      AVE VOLUME [Bytes]
 MP_Group                4
 MP_Bcast              811                4784717.
 MP_Allreduce         1096                   2062.
 MP_Sync              1607
 MP_Alltoall          3009              291171565.
 MP_ISendRecv       564512                  12659.
 MP_Wait            572298
 MP_comm_split          53
 MP_ISend            34822                 118331.
 MP_IRecv            35288                 116782.
 MP_Recv               162                  65960.
 -------------------------------------------------------------------------------


 -------------------------------------------------------------------------------
 -                                                                             -
 -                           R E F E R E N C E S                               -
 -                                                                             -
 -------------------------------------------------------------------------------
 
 CP2K version 8.2, the CP2K developers group (2021).
 CP2K is freely available from https://www.cp2k.org/ .

 Kuehne,Thomas D.; Iannuzzi,Marcella; Del Ben,Mauro;
 Rybkin,Vladimir V.; Seewald,Patrick; Stein,Frederick; Laino,Teodoro;
 Khaliullin,Rustam Z.; Schuett,Ole; Schiffmann,Florian; Golze,Dorothea;
 Wilhelm,Jan; Chulkov,Sergey; Bani-Hashemian,Mohammad Hossein;
 Weber,Valery; Borstnik,Urban; Taillefumier,Mathieu;
 Jakobovits,Alice Shoshana; Lazzaro,Alfio; Pabst,Hans; Mueller,Tiziano;
 Schade,Robert; Guidon,Manuel; Andermatt,Samuel; Holmberg,Nico;
 Schenter,Gregory K.; Hehn,Anna; Bussy,Augustin; Belleflamme,Fabian;
 Tabacchi,Gloria; Gloess,Andreas; Lass,Michael; Bethune,Iain;
 Mundy,Christopher J.; Plessl,Christian; Watkins,Matt;
 VandeVondele,Joost; Krack,Matthias; Hutter,Juerg. 
 The Journal of Chemical Physics, 152 (19), (2020). 
 CP2K: An electronic structure and molecular dynamics software package -
 Quickstep: Efficient and accurate electronic structure calculations.
 https://doi.org/10.1063/5.0007045

 Schuett, Ole; Messmer, Peter; Hutter, Juerg; VandeVondele, Joost. 
 Electronic Structure Calculations on Graphics Processing Units, John
 Wiley & Sons, Ltd, 173-190 (2016). 
 GPU-Accelerated Sparse Matrix-Matrix Multiplication for
 Linear Scaling Density Functional Theory.
 https://doi.org/10.1002/9781118670712.ch8

 Heinecke, A; Henry, G; Hutchinson, M; Pabst, H. 
 Proceedings of Intl. Supercomputing Conference, 981-991 (2016). 
 LIBXSMM: Accelerating Small Matrix Multiplications
 by Runtime Code Generation.
 https://doi.org/10.1109/SC.2016.83

 Borstnik, U; VandeVondele, J; Weber, V; Hutter, J. 
 PARALLEL COMPUTING, 40 (5-6), 47-58 (2014). 
 Sparse matrix multiplication: The distributed block-compressed sparse
 row library.
 https://doi.org/10.1016/j.parco.2014.03.012

 Hutter, J; Iannuzzi, M; Schiffmann, F; VandeVondele, J. 
 WIREs Comput Mol Sci., 4 (1), 15-25 (2014). 
 CP2K: atomistic simulations of condensed matter systems.
 https://doi.org/10.1002/wcms.1159

 Guidon, M; Hutter, J; VandeVondele, J. 
 JOURNAL OF CHEMICAL THEORY AND COMPUTATION, 6 (8), 2348-2364 (2010). 
 Auxiliary Density Matrix Methods for Hartree-Fock Exchange Calculations.
 https://doi.org/10.1021/ct1002225

 Guidon, M; Hutter, J; VandeVondele, J. 
 JOURNAL OF CHEMICAL THEORY AND COMPUTATION, 5 (11), 3010-3021 (2009). 
 Robust Periodic Hartree-Fock Exchange for Large-Scale Simulations Using
 Gaussian Basis Sets.
 https://doi.org/10.1021/ct900494g

 Gilbert, ATB; Besley, NA; Gill, PMW. 
 THE JOURNAL OF PHYSICAL CHEMISTRY A, 112, 13164-13171 (2008). 
 Self-consistent field calculations of excited states
 using the maximum overlap method (MOM).
 https://doi.org/10.1021/jp801738f

 Guidon, M; Schiffmann, F; Hutter, J; VandeVondele, J. 
 JOURNAL OF CHEMICAL PHYSICS, 128 (21), 214104 (2008). 
 Ab initio molecular dynamics using hybrid density functionals.
 https://doi.org/10.1063/1.2931945

 VandeVondele, J; Hutter, J. 
 JOURNAL OF CHEMICAL PHYSICS, 127 (11), 114105 (2007). 
 Gaussian basis sets for accurate calculations on molecular systems in
 gas and condensed phases.
 https://doi.org/10.1063/1.2770708

 Krack, M. 
 THEORETICAL CHEMISTRY ACCOUNTS, 114 (1-3), 145-152 (2005). 
 Pseudopotentials for H to Kr optimized for gradient-corrected
 exchange-correlation functionals.
 https://doi.org/10.1007/s00214-005-0655-y

 VandeVondele, J; Krack, M; Mohamed, F; Parrinello, M; Chassaing, T;
 Hutter, J. COMPUTER PHYSICS COMMUNICATIONS, 167 (2), 103-128 (2005). 
 QUICKSTEP: Fast and accurate density functional calculations using a
 mixed Gaussian and plane waves approach.
 https://doi.org/10.1016/j.cpc.2004.12.014

 Frigo, M; Johnson, SG. 
 PROCEEDINGS OF THE IEEE, 93 (2), 216-231 (2005). 
 The design and implementation of FFTW3.
 https://doi.org/10.1109/JPROC.2004.840301

 Heyd, J; Scuseria, GE. 
 JOURNAL OF CHEMICAL PHYSICS, 120 (16), 7274-7280 (2004). 
 Assessment and validation of a screened Coulomb hybrid density
 functional.
 https://doi.org/10.1063/1.1668634

 Hartwigsen, C; Goedecker, S; Hutter, J. 
 PHYSICAL REVIEW B, 58 (7), 3641-3662 (1998). 
 Relativistic separable dual-space Gaussian pseudopotentials from H to Rn.
 https://doi.org/10.1103/PhysRevB.58.3641

 Lippert, G; Hutter, J; Parrinello, M. 
 MOLECULAR PHYSICS, 92 (3), 477-487 (1997). 
 A hybrid Gaussian and plane wave density functional scheme.
 https://doi.org/10.1080/002689797170220

 Perdew, JP; Burke, K; Ernzerhof, M. 
 PHYSICAL REVIEW LETTERS, 77 (18), 3865-3868 (1996). 
 Generalized gradient approximation made simple.
 https://doi.org/10.1103/PhysRevLett.77.3865

 Goedecker, S; Teter, M; Hutter, J. 
 PHYSICAL REVIEW B, 54 (3), 1703-1710 (1996). 
 Separable dual-space Gaussian pseudopotentials.
 https://doi.org/10.1103/PhysRevB.54.1703


 -------------------------------------------------------------------------------
 -                                                                             -
 -                                T I M I N G                                  -
 -                                                                             -
 -------------------------------------------------------------------------------
 SUBROUTINE                       CALLS  ASD         SELF TIME        TOTAL TIME
                                MAXIMUM       AVERAGE  MAXIMUM  AVERAGE  MAXIMUM
 CP2K                                 1  1.0    0.024    0.052  133.256  133.256
 qs_energies                          1  2.0    0.001    0.002  132.446  132.447
 scf_env_do_scf                       1  3.0    0.000    0.001  130.184  130.188
 scf_env_do_scf_inner_loop           26  4.0    0.001    0.003  130.184  130.188
 qs_ks_update_qs_env                 26  5.0    0.000    0.000   96.634   96.635
 rebuild_ks_matrix                   26  6.0    0.000    0.001   96.629   96.629
 qs_ks_build_kohn_sham_matrix        26  7.0    0.004    0.007   96.628   96.629
 rs_pw_transfer                     844 10.2    0.007    0.010   39.262   41.677
 hfx_ks_matrix                       26  8.0    0.001    0.003   40.475   40.478
 integrate_four_center               26  9.0    0.195    0.209   40.467   40.470
 sum_up_and_integrate                26  8.0    0.013    0.015   37.443   37.447
 integrate_v_rspace                 104  9.0    0.002    0.003   37.425   37.429
 integrate_four_center_main          26 10.0    0.006    0.007   35.708   36.571
 integrate_four_center_bin         1690 11.0   35.702   36.565   35.702   36.565
 calculate_rho_elec                 106  7.5    0.013    0.015   32.411   32.416
 density_rs2pw                      106  8.5    0.004    0.005   22.203   24.655
 grid_collocate_task_list           106  8.5   10.087   21.585   10.087   21.585
 qs_rho_update_rho                   27  5.0    0.001    0.002   20.195   20.196
 potential_pw2rs                    104 10.0    0.006    0.006   18.707   18.938
 rs_pw_transfer_RS2PW_250           108 10.4    3.165    4.228   16.084   18.617
 mp_waitany                        5996 12.2   14.537   17.449   14.537   17.449
 grid_integrate_task_list           104 10.0    6.614   17.140    6.614   17.140
 mp_alltoall_d11v                  2451 11.1   12.378   14.524   12.378   14.524
 qs_scf_new_mos                      26  5.0    0.000    0.000   14.314   14.333
 do_mom_diag                         26  6.0    0.003    0.004   14.314   14.333
 rs_gather_matrices                 104 10.0    0.004    0.005   12.102   14.277
 rs_pw_transfer_PW2RS_250           106 11.9    4.930    5.003   13.181   13.268
 admm_mo_calc_rho_aux                26  8.0    0.000    0.001   12.887   12.890
 eigensolver_symm                    52  7.0    0.003    0.004   12.357   12.360
 cp_fm_syevd                         53  7.9    0.001    0.001   11.248   11.284
 cp_fm_redistribute_end              53  8.9   10.635   11.083   10.681   11.088
 cp_fm_syevd_base                    53  8.9    0.394   10.828    0.394   10.828
 rs_grid_zero                       108 12.8    6.475    6.547    6.475    6.547
 mp_waitall_1                    611820 12.2    5.096    5.802    5.096    5.802
 mp_sync                           1607 14.4    2.978    5.779    2.978    5.779
 pw_transfer                       1753 10.2    0.102    0.122    4.747    5.008
 fft_wrap_pw1pw2                   1701 11.2    0.009    0.011    4.641    4.917
 qs_vxc_create                       52  8.0    0.001    0.003    4.572    4.572
 xc_vxc_pw_create                    52  9.0    0.320    0.353    4.571    4.571
 fft_wrap_pw1pw2_250               1071 12.2    0.108    0.128    3.791    4.070
 fft3d_pb                          1071 13.2    0.444    0.500    3.574    3.870
 mp_alltoall_z22v                  2772 15.2    2.988    3.437    2.988    3.437
 rs_pw_transfer_PW2RS_90            104 12.0    1.979    2.255    3.251    3.424
 rs_pw_transfer_RS2PW_90            106 10.5    1.732    2.015    3.150    3.409
 xc_rho_set_and_dset_create          52 10.0    0.030    0.034    2.567    2.729
 mp_isendrecv_dv                 562978 12.1    0.989    2.677    0.989    2.677
 -------------------------------------------------------------------------------

 The number of warnings for this run is : 5
 
 -------------------------------------------------------------------------------
  **** **** ******  **  PROGRAM ENDED AT                 2024-08-29 22:12:45.492
 ***** ** ***  *** **   PROGRAM RAN ON                              i01r01c01s01
 **    ****   ******    PROGRAM RAN BY                                   di76zil
 ***** **    ** ** **   PROGRAM PROCESS ID                               1239704
  **** **  *******  **  PROGRAM STOPPED IN /hppfs/work/pn36zo/di76zil/39_hBN/1_7
                                           x7_neg_charged_vacancy/52_geoopt_exci
                                           ted_state
